 argument  1 = /storage/home/j/jbb5516/phenylExc.nw
 


============================== echo of input deck ==============================
echo
start

geometry
C    -0.08714006     1.38304372     0.00000008
C    -1.26702264     0.68586055     0.00000001
C    -1.16700412    -0.70996889     0.00000001
C     0.08324816    -1.32124953     0.00000007
C     1.24688828    -0.55787799     0.00000002
C     1.17091838     0.83946690     0.00000008
H    -2.23155837     1.17564063    -0.00000007
H    -2.06715194    -1.31129762    -0.00000006
H     0.15125622    -2.40063469     0.00000003
H     2.21539348    -1.04146876    -0.00000010
H     2.06635187     1.44643689    -0.00000007
symmetry c1
end

basis spherical
 * library "aug-cc-pvtz"
end

dft
 direct
 mult 2
 iterations 500
 xc b3lyp
end

tddft
 nroots 40
 notriplet
 algorithm 1
end
task tddft energy
================================================================================


                                         
                                         
 
 
              Northwest Computational Chemistry Package (NWChem) 6.8
              ------------------------------------------------------
 
 
                    Environmental Molecular Sciences Laboratory
                       Pacific Northwest National Laboratory
                                Richland, WA 99352
 
                              Copyright (c) 1994-2017
                       Pacific Northwest National Laboratory
                            Battelle Memorial Institute
 
             NWChem is an open-source computational chemistry package
                        distributed under the terms of the
                      Educational Community License (ECL) 2.0
             A copy of the license is included with this distribution
                              in the LICENSE.TXT file
 
                                  ACKNOWLEDGMENT
                                  --------------

            This software and its documentation were developed at the
            EMSL at Pacific Northwest National Laboratory, a multiprogram
            national laboratory, operated for the U.S. Department of Energy
            by Battelle under Contract Number DE-AC05-76RL01830. Support
            for this work was provided by the Department of Energy Office
            of Biological and Environmental Research, Office of Basic
            Energy Sciences, and the Office of Advanced Scientific Computing.


           Job information
           ---------------

    hostname        = comp-sc-0031.acib.production.int.aci.ics.psu.edu
    program         = /gpfs/group/lxj18/default/jeffprograms/nwchem-6.8.1/bin/LINUX64/nwchem
    date            = Sun Sep 20 10:30:25 2020

    compiled        = Wed_Oct_03_14:08:39_2018
    source          = /gpfs/group/lxj18/default/jeffprograms/nwchem-6.8.1
    nwchem branch   = 6.8.1
    nwchem revision = v6.8-143-gdb0d964
    ga revision     = 5.6.5
    use scalapack   = F
    input           = /storage/home/j/jbb5516/phenylExc.nw
    prefix          = phenylExc.
    data base       = ./phenylExc.db
    status          = startup
    nproc           =       40
    time left       =     -1s



           Memory information
           ------------------

    heap     =   13107196 doubles =    100.0 Mbytes
    stack    =   13107201 doubles =    100.0 Mbytes
    global   =   26214400 doubles =    200.0 Mbytes (distinct from heap & stack)
    total    =   52428797 doubles =    400.0 Mbytes
    verify   = yes
    hardfail = no 


           Directory information
           ---------------------
 
  0 permanent = .
  0 scratch   = .
 
 
 
 
                                NWChem Input Module
                                -------------------
 
 

 Scaling coordinates for geometry "geometry" by  1.889725989
 (inverse scale =  0.529177249)

 Turning off AUTOSYM since
 SYMMETRY directive was detected!
 

          ------
          auto-z
          ------
 
 
                             Geometry "geometry" -> ""
                             -------------------------
 
 Output coordinates in angstroms (scale by  1.889725989 to convert to a.u.)
 
  No.       Tag          Charge          X              Y              Z
 ---- ---------------- ---------- -------------- -------------- --------------
    1 C                    6.0000    -0.08747224     1.38830409     0.00000005
    2 C                    6.0000    -1.26735482     0.69112092    -0.00000002
    3 C                    6.0000    -1.16733630    -0.70470852    -0.00000002
    4 C                    6.0000     0.08291598    -1.31598916     0.00000004
    5 C                    6.0000     1.24655610    -0.55261762    -0.00000001
    6 C                    6.0000     1.17058620     0.84472727     0.00000005
    7 H                    1.0000    -2.23189055     1.18090100    -0.00000010
    8 H                    1.0000    -2.06748412    -1.30603725    -0.00000009
    9 H                    1.0000     0.15092404    -2.39537432    -0.00000000
   10 H                    1.0000     2.21506130    -1.03620839    -0.00000013
   11 H                    1.0000     2.06601969     1.45169726    -0.00000010
 
      Atomic Mass 
      ----------- 
 
      C                 12.000000
      H                  1.007825
 

 Effective nuclear repulsion energy (a.u.)     195.0640129284

            Nuclear Dipole moment (a.u.) 
            ----------------------------
        X                 Y               Z
 ---------------- ---------------- ----------------
    -0.0000000000     0.0000000000    -0.0000000000
 


                                Z-matrix (autoz)
                                -------- 

 Units are Angstrom for bonds and degrees for angles
 
      Type          Name      I     J     K     L     M      Value
      ----------- --------  ----- ----- ----- ----- ----- ----------
    1 Stretch                  1     2                       1.37047
    2 Stretch                  1     6                       1.37047
    3 Stretch                  2     3                       1.39941
    4 Stretch                  2     7                       1.08176
    5 Stretch                  3     4                       1.39169
    6 Stretch                  3     8                       1.08253
    7 Stretch                  4     5                       1.39169
    8 Stretch                  4     9                       1.08153
    9 Stretch                  5     6                       1.39941
   10 Stretch                  5    10                       1.08253
   11 Stretch                  6    11                       1.08176
   12 Bend                     1     2     3               116.47996
   13 Bend                     1     2     7               122.50057
   14 Bend                     1     6     5               116.47997
   15 Bend                     1     6    11               122.50059
   16 Bend                     2     1     6               126.05349
   17 Bend                     2     3     4               120.15374
   18 Bend                     2     3     8               119.64570
   19 Bend                     3     2     7               121.01947
   20 Bend                     3     4     5               120.67911
   21 Bend                     3     4     9               119.66043
   22 Bend                     4     3     8               120.20055
   23 Bend                     4     5     6               120.15373
   24 Bend                     4     5    10               120.20059
   25 Bend                     5     4     9               119.66046
   26 Bend                     5     6    11               121.01945
   27 Bend                     6     5    10               119.64567
   28 Torsion                  1     2     3     4           0.00000
   29 Torsion                  1     2     3     8        -180.00000
   30 Torsion                  1     6     5     4           0.00000
   31 Torsion                  1     6     5    10         180.00000
   32 Torsion                  2     1     6     5           0.00000
   33 Torsion                  2     1     6    11         180.00000
   34 Torsion                  2     3     4     5           0.00000
   35 Torsion                  2     3     4     9        -180.00000
   36 Torsion                  3     2     1     6           0.00000
   37 Torsion                  3     4     5     6           0.00000
   38 Torsion                  3     4     5    10        -180.00000
   39 Torsion                  4     3     2     7         180.00000
   40 Torsion                  4     5     6    11        -180.00000
   41 Torsion                  5     4     3     8         180.00000
   42 Torsion                  6     1     2     7        -180.00000
   43 Torsion                  6     5     4     9        -180.00000
   44 Torsion                  7     2     3     8           0.00000
   45 Torsion                  8     3     4     9           0.00000
   46 Torsion                  9     4     5    10           0.00000
   47 Torsion                 10     5     6    11           0.00000
 
 
            XYZ format geometry
            -------------------
    11
 geometry
 C                    -0.08747224     1.38830409     0.00000005
 C                    -1.26735482     0.69112092    -0.00000002
 C                    -1.16733630    -0.70470852    -0.00000002
 C                     0.08291598    -1.31598916     0.00000004
 C                     1.24655610    -0.55261762    -0.00000001
 C                     1.17058620     0.84472727     0.00000005
 H                    -2.23189055     1.18090100    -0.00000010
 H                    -2.06748412    -1.30603725    -0.00000009
 H                     0.15092404    -2.39537432    -0.00000000
 H                     2.21506130    -1.03620839    -0.00000013
 H                     2.06601969     1.45169726    -0.00000010
 
 ==============================================================================
                                internuclear distances
 ------------------------------------------------------------------------------
       center one      |      center two      | atomic units |  angstroms
 ------------------------------------------------------------------------------
    2 C                |   1 C                |     2.58981  |     1.37047
    3 C                |   2 C                |     2.64450  |     1.39941
    4 C                |   3 C                |     2.62991  |     1.39169
    5 C                |   4 C                |     2.62991  |     1.39169
    6 C                |   1 C                |     2.58981  |     1.37047
    6 C                |   5 C                |     2.64450  |     1.39941
    7 H                |   2 C                |     2.04424  |     1.08176
    8 H                |   3 C                |     2.04568  |     1.08253
    9 H                |   4 C                |     2.04379  |     1.08153
   10 H                |   5 C                |     2.04568  |     1.08253
   11 H                |   6 C                |     2.04424  |     1.08176
 ------------------------------------------------------------------------------
                         number of included internuclear distances:         11
 ==============================================================================



 ==============================================================================
                                 internuclear angles
 ------------------------------------------------------------------------------
        center 1       |       center 2       |       center 3       |  degrees
 ------------------------------------------------------------------------------
    2 C                |   1 C                |   6 C                |   126.05
    1 C                |   2 C                |   3 C                |   116.48
    1 C                |   2 C                |   7 H                |   122.50
    3 C                |   2 C                |   7 H                |   121.02
    2 C                |   3 C                |   4 C                |   120.15
    2 C                |   3 C                |   8 H                |   119.65
    4 C                |   3 C                |   8 H                |   120.20
    3 C                |   4 C                |   5 C                |   120.68
    3 C                |   4 C                |   9 H                |   119.66
    5 C                |   4 C                |   9 H                |   119.66
    4 C                |   5 C                |   6 C                |   120.15
    4 C                |   5 C                |  10 H                |   120.20
    6 C                |   5 C                |  10 H                |   119.65
    1 C                |   6 C                |   5 C                |   116.48
    1 C                |   6 C                |  11 H                |   122.50
    5 C                |   6 C                |  11 H                |   121.02
 ------------------------------------------------------------------------------
                            number of included internuclear angles:         16
 ==============================================================================





 Summary of "ao basis" -> "" (spherical)
 ------------------------------------------------------------------------------
       Tag                 Description            Shells   Functions and Types
 ---------------- ------------------------------  ------  ---------------------
 *                        aug-cc-pvtz                 on all atoms 


 
                                 NWChem DFT Module
                                 -----------------
 
 
                      Basis "ao basis" -> "ao basis" (spherical)
                      -----
  C (Carbon)
  ----------
            Exponent  Coefficients 
       -------------- ---------------------------------------------------------
  1 S  8.23600000E+03  0.000531
  1 S  1.23500000E+03  0.004108
  1 S  2.80800000E+02  0.021087
  1 S  7.92700000E+01  0.081853
  1 S  2.55900000E+01  0.234817
  1 S  8.99700000E+00  0.434401
  1 S  3.31900000E+00  0.346129
  1 S  3.64300000E-01 -0.008983
 
  2 S  8.23600000E+03 -0.000113
  2 S  1.23500000E+03 -0.000878
  2 S  2.80800000E+02 -0.004540
  2 S  7.92700000E+01 -0.018133
  2 S  2.55900000E+01 -0.055760
  2 S  8.99700000E+00 -0.126895
  2 S  3.31900000E+00 -0.170352
  2 S  3.64300000E-01  0.598684
 
  3 S  9.05900000E-01  1.000000
 
  4 S  1.28500000E-01  1.000000
 
  5 S  4.40200000E-02  1.000000
 
  6 P  1.87100000E+01  0.014031
  6 P  4.13300000E+00  0.086866
  6 P  1.20000000E+00  0.290216
 
  7 P  3.82700000E-01  1.000000
 
  8 P  1.20900000E-01  1.000000
 
  9 P  3.56900000E-02  1.000000
 
 10 D  1.09700000E+00  1.000000
 
 11 D  3.18000000E-01  1.000000
 
 12 D  1.00000000E-01  1.000000
 
 13 F  7.61000000E-01  1.000000
 
 14 F  2.68000000E-01  1.000000
 
  H (Hydrogen)
  ------------
            Exponent  Coefficients 
       -------------- ---------------------------------------------------------
  1 S  3.38700000E+01  0.006068
  1 S  5.09500000E+00  0.045308
  1 S  1.15900000E+00  0.202822
 
  2 S  3.25800000E-01  1.000000
 
  3 S  1.02700000E-01  1.000000
 
  4 S  2.52600000E-02  1.000000
 
  5 P  1.40700000E+00  1.000000
 
  6 P  3.88000000E-01  1.000000
 
  7 P  1.02000000E-01  1.000000
 
  8 D  1.05700000E+00  1.000000
 
  9 D  2.47000000E-01  1.000000
 


 Summary of "ao basis" -> "ao basis" (spherical)
 ------------------------------------------------------------------------------
       Tag                 Description            Shells   Functions and Types
 ---------------- ------------------------------  ------  ---------------------
 C                        aug-cc-pvtz               14       46   5s4p3d2f
 H                        aug-cc-pvtz                9       23   4s3p2d




 Summary of "ao basis" -> "ao basis" (spherical)
 ------------------------------------------------------------------------------
       Tag                 Description            Shells   Functions and Types
 ---------------- ------------------------------  ------  ---------------------
 C                        aug-cc-pvtz               14       46   5s4p3d2f
 H                        aug-cc-pvtz                9       23   4s3p2d


  Caching 1-el integrals 
 
            General Information
            -------------------
          SCF calculation type: DFT
          Wavefunction type:  spin polarized.
          No. of atoms     :    11
          No. of electrons :    41
           Alpha electrons :    21
            Beta electrons :    20
          Charge           :     0
          Spin multiplicity:     2
          Use of symmetry is: off; symmetry adaption is: off
          Maximum number of iterations: 500
          This is a Direct SCF calculation.
          AO basis - number of functions:   391
                     number of shells:   129
          Convergence on energy requested:  1.00D-06
          Convergence on density requested:  1.00D-05
          Convergence on gradient requested:  5.00D-04
 
              XC Information
              --------------
                         B3LYP Method XC Potential
                     Hartree-Fock (Exact) Exchange  0.200          
                        Slater Exchange Functional  0.800 local    
                    Becke 1988 Exchange Functional  0.720 non-local
              Lee-Yang-Parr Correlation Functional  0.810          
                  VWN I RPA Correlation Functional  0.190 local    
 
             Grid Information
             ----------------
          Grid used for XC integration:  medium    
          Radial quadrature: Mura-Knowles        
          Angular quadrature: Lebedev. 
          Tag              B.-S. Rad. Rad. Pts. Rad. Cut. Ang. Pts.
          ---              ---------- --------- --------- ---------
          C                   0.70       49          15.0       434
          H                   0.35       45          17.0       434
          Grid pruning is: on 
          Number of quadrature shells:   519
          Spatial weights used:  Erf1
 
          Convergence Information
          -----------------------
          Convergence aids based upon iterative change in 
          total energy or number of iterations. 
          Levelshifting, if invoked, occurs when the 
          HOMO/LUMO gap drops below (HL_TOL):  1.00D-02
          DIIS, if invoked, will attempt to extrapolate 
          using up to (NFOCK): 10 stored Fock matrices.

                    Damping( 0%)  Levelshifting(0.5)       DIIS
                  --------------- ------------------- ---------------
          dE  on:    start            ASAP                start   
          dE off:    2 iters        500 iters           500 iters 

 
      Screening Tolerance Information
      -------------------------------
          Density screening/tol_rho:  1.00D-10
          AO Gaussian exp screening on grid/accAOfunc:  14
          CD Gaussian exp screening on grid/accCDfunc:  20
          XC Gaussian exp screening on grid/accXCfunc:  20
          Schwarz screening/accCoul:  1.00D-08

 
 WARNING : Found     7 linear dependencies 
 S eigenvalue threshold:     1.00000E-05
 Smallest S eigenvalue :     1.46340E-06
 Largest  S eigenvalue :     7.76552E-06
 

 !! The overlap matrix has   7 vectors deemed linearly dependent with
    eigenvalues:
 1.46D-06 2.24D-06 2.83D-06 3.54D-06 5.27D-06 5.95D-06 7.77D-06
 
 
      Superposition of Atomic Density Guess
      -------------------------------------
 
 Sum of atomic energies:        -228.52307259
 
      Non-variational initial energy
      ------------------------------

 Total energy =    -232.667211
 1-e energy   =    -691.328534
 2-e energy   =     263.597310
 HOMO         =      -0.183326
 LUMO         =      -0.022268
 
   Time after variat. SCF:      9.4
   Time prior to 1st pass:      9.4

 Grid_pts file          = ./phenylExc.gridpts.00
 Record size in doubles =  12289        No. of grid_pts per rec  =   3070
 Max. records in memory =      4        Max. recs in file   = 224670110

 Grid integrated density:      40.999765896832
 Requested integration accuracy:   0.10E-05

           Memory utilization after 1st SCF pass: 
           Heap Space remaining (MW):       12.99            12985860
          Stack Space remaining (MW):       13.10            13103684

   convergence    iter        energy       DeltaE   RMS-Dens  Diis-err    time
 ---------------- ----- ----------------- --------- --------- ---------  ------
 d= 0,ls=0.0,diis     1   -231.5815934842 -4.27D+02  6.18D-02  2.09D-01    15.3
                                                     6.98D-02  1.96D-01
 d= 0,ls=0.0,diis     2   -231.6398346758 -5.82D-02  6.09D-02  1.22D-02    20.9
                                                     6.87D-02  1.25D-02
 d= 0,ls=0.0,diis     3   -231.6446122527 -4.78D-03  1.28D-03  3.44D-03    26.4
                                                     1.38D-03  3.50D-03
 d= 0,ls=0.0,diis     4   -231.6457690402 -1.16D-03  2.03D-04  1.12D-03    32.0
                                                     2.07D-04  1.06D-03
 d= 0,ls=0.0,diis     5   -231.6462872277 -5.18D-04  3.40D-05  4.24D-05    37.6
                                                     3.12D-05  4.84D-05
  Resetting Diis
 d= 0,ls=0.0,diis     6   -231.6463151060 -2.79D-05  1.11D-05  7.81D-06    43.2
                                                     1.06D-05  6.31D-06
 d= 0,ls=0.0,diis     7   -231.6463213007 -6.19D-06  7.31D-06  2.13D-06    48.7
                                                     6.52D-06  2.39D-06
 d= 0,ls=0.0,diis     8   -231.6463223748 -1.07D-06  3.05D-06  5.48D-06    54.3
                                                     2.70D-06  4.83D-06
 d= 0,ls=0.0,diis     9   -231.6463256656 -3.29D-06  3.74D-06  3.84D-07    59.9
                                                     3.31D-06  3.27D-07
 d= 0,ls=0.0,diis    10   -231.6463269697 -1.30D-06  2.14D-06  1.89D-07    65.5
                                                     2.45D-06  2.88D-07
 d= 0,ls=0.0,diis    11   -231.6463274038 -4.34D-07  5.94D-07  1.19D-08    71.1
                                                     5.14D-07  9.03D-09


         Total DFT energy =     -231.646327403832
      One electron energy =     -696.560996785471
           Coulomb energy =      304.259849118673
    Exchange-Corr. energy =      -34.409192665437
 Nuclear repulsion energy =      195.064012928403

 Numeric. integr. density =       40.999984402551

     Total iterative time =     61.7s


 
                    DFT Final Alpha Molecular Orbital Analysis
                    ------------------------------------------
 
 Vector    1  Occ=1.000000D+00  E=-1.020525D+01
              MO Center= -8.7D-02,  1.4D+00,  4.8D-08, r^2= 3.0D-02
   Bfn.  Coefficient  Atom+Function         Bfn.  Coefficient  Atom+Function  
  ----- ------------  ---------------      ----- ------------  ---------------
     1      0.984164   1 C  s                 3      0.058854   1 C  s         
    50     -0.038416   2 C  s               234     -0.038417   6 C  s         
   143      0.037877   4 C  s               279      0.037951   7 H  s         
   371      0.037949  11 H  s                51     -0.030672   2 C  s         
   235     -0.030671   6 C  s                47      0.025288   2 C  s         
 
 Vector    2  Occ=1.000000D+00  E=-1.019183D+01
              MO Center= -7.3D-01, -6.3D-01, -2.3D-08, r^2= 9.6D-01
   Bfn.  Coefficient  Atom+Function         Bfn.  Coefficient  Atom+Function  
  ----- ------------  ---------------      ----- ------------  ---------------
    93      0.874169   3 C  s               185      0.411915   5 C  s         
    47      0.176791   2 C  s               142     -0.092915   4 C  s         
   231      0.071986   6 C  s               139      0.055743   4 C  s         
    95      0.052267   3 C  s               302      0.049061   8 H  s         
   325      0.048088   9 H  s               234      0.036384   6 C  s         
 
 Vector    3  Occ=1.000000D+00  E=-1.019180D+01
              MO Center=  8.1D-01, -5.2D-01, -1.4D-08, r^2= 9.8D-01
   Bfn.  Coefficient  Atom+Function         Bfn.  Coefficient  Atom+Function  
  ----- ------------  ---------------      ----- ------------  ---------------
   185      0.872161   5 C  s                93     -0.407709   3 C  s         
   231      0.190374   6 C  s                47     -0.100662   2 C  s         
    50      0.062544   2 C  s               348      0.059057  10 H  s         
    51      0.052892   2 C  s               187      0.051928   5 C  s         
   279     -0.051675   7 H  s               234     -0.051090   6 C  s         
 
 Vector    4  Occ=1.000000D+00  E=-1.019034D+01
              MO Center= -1.1D+00,  6.4D-01, -2.0D-08, r^2= 3.9D-01
   Bfn.  Coefficient  Atom+Function         Bfn.  Coefficient  Atom+Function  
  ----- ------------  ---------------      ----- ------------  ---------------
    47      0.940264   2 C  s               231      0.221407   6 C  s         
    93     -0.191971   3 C  s               279      0.058560   7 H  s         
    49      0.054936   2 C  s               143      0.037885   4 C  s         
     4     -0.035242   1 C  s               185     -0.033140   5 C  s         
   142     -0.032008   4 C  s               189      0.031689   5 C  s         
 
 Vector    5  Occ=1.000000D+00  E=-1.019033D+01
              MO Center=  1.0D+00,  7.7D-01,  4.2D-08, r^2= 4.0D-01
   Bfn.  Coefficient  Atom+Function         Bfn.  Coefficient  Atom+Function  
  ----- ------------  ---------------      ----- ------------  ---------------
   231      0.938652   6 C  s                47     -0.214542   2 C  s         
   185     -0.197611   5 C  s                93      0.056952   3 C  s         
   371      0.056256  11 H  s               233      0.054439   6 C  s         
    97      0.045930   3 C  s                96      0.041041   3 C  s         
   189     -0.039679   5 C  s                12     -0.037465   1 C  px        
 
 Vector    6  Occ=1.000000D+00  E=-1.018432D+01
              MO Center=  8.3D-02, -1.3D+00,  3.9D-08, r^2= 3.5D-02
   Bfn.  Coefficient  Atom+Function         Bfn.  Coefficient  Atom+Function  
  ----- ------------  ---------------      ----- ------------  ---------------
   139      0.984285   4 C  s               141      0.057792   4 C  s         
    96     -0.045908   3 C  s               188     -0.045910   5 C  s         
   325      0.046007   9 H  s               143     -0.043503   4 C  s         
     4      0.040391   1 C  s                93     -0.039663   3 C  s         
   185     -0.039748   5 C  s               151      0.036017   4 C  py        
 
 Vector    7  Occ=1.000000D+00  E=-8.724603D-01
              MO Center= -6.3D-03,  9.9D-02,  5.0D-09, r^2= 2.0D+00
   Bfn.  Coefficient  Atom+Function         Bfn.  Coefficient  Atom+Function  
  ----- ------------  ---------------      ----- ------------  ---------------
     2      0.214063   1 C  s                48      0.202671   2 C  s         
   232      0.202654   6 C  s                94      0.195596   3 C  s         
   186      0.195579   5 C  s               140      0.188217   4 C  s         
    50      0.090243   2 C  s               234      0.090233   6 C  s         
    96      0.088095   3 C  s               188      0.088089   5 C  s         
 
 Vector    8  Occ=1.000000D+00  E=-7.627320D-01
              MO Center= -6.3D-03,  1.0D-01,  1.9D-09, r^2= 2.8D+00
   Bfn.  Coefficient  Atom+Function         Bfn.  Coefficient  Atom+Function  
  ----- ------------  ---------------      ----- ------------  ---------------
    48      0.250858   2 C  s               232     -0.250868   6 C  s         
    94      0.243819   3 C  s               186     -0.243826   5 C  s         
    50      0.146219   2 C  s               234     -0.146227   6 C  s         
   279     -0.129367   7 H  s               371      0.129371  11 H  s         
   150     -0.115521   4 C  px               97      0.110865   3 C  s         
 
 Vector    9  Occ=1.000000D+00  E=-7.537327D-01
              MO Center=  9.2D-03, -1.5D-01, -2.7D-08, r^2= 2.6D+00
   Bfn.  Coefficient  Atom+Function         Bfn.  Coefficient  Atom+Function  
  ----- ------------  ---------------      ----- ------------  ---------------
   140     -0.300918   4 C  s                 2      0.278553   1 C  s         
    94     -0.148872   3 C  s               186     -0.148864   5 C  s         
    48      0.148026   2 C  s               142     -0.147430   4 C  s         
   232      0.148016   6 C  s                96     -0.104910   3 C  s         
   188     -0.104908   5 C  s                 4      0.103024   1 C  s         
 
 Vector   10  Occ=1.000000D+00  E=-6.187400D-01
              MO Center= -2.5D-03,  3.9D-02, -1.0D-08, r^2= 3.6D+00
   Bfn.  Coefficient  Atom+Function         Bfn.  Coefficient  Atom+Function  
  ----- ------------  ---------------      ----- ------------  ---------------
    94     -0.208567   3 C  s               186      0.208561   5 C  s         
    48      0.199457   2 C  s               232     -0.199463   6 C  s         
    50      0.183352   2 C  s               234     -0.183359   6 C  s         
    96     -0.146992   3 C  s               188      0.146982   5 C  s         
     6     -0.127295   1 C  px              144      0.116926   4 C  px        
 
 Vector   11  Occ=1.000000D+00  E=-6.035491D-01
              MO Center=  5.4D-03, -8.7D-02, -3.2D-08, r^2= 3.5D+00
   Bfn.  Coefficient  Atom+Function         Bfn.  Coefficient  Atom+Function  
  ----- ------------  ---------------      ----- ------------  ---------------
   142      0.258350   4 C  s                 2      0.238938   1 C  s         
   140      0.218767   4 C  s                 4      0.198690   1 C  s         
    94     -0.138340   3 C  s               186     -0.138359   5 C  s         
    50     -0.122716   2 C  s               234     -0.122706   6 C  s         
    96     -0.119270   3 C  s               188     -0.119282   5 C  s         
 
 Vector   12  Occ=1.000000D+00  E=-5.277274D-01
              MO Center=  9.4D-03, -1.5D-01, -1.1D-08, r^2= 4.1D+00
   Bfn.  Coefficient  Atom+Function         Bfn.  Coefficient  Atom+Function  
  ----- ------------  ---------------      ----- ------------  ---------------
   148      0.159262   4 C  py              145      0.138838   4 C  py        
   324     -0.126840   9 H  s                55      0.105300   2 C  px        
   240     -0.104900   6 C  py              323     -0.100378   9 H  s         
   237     -0.096179   6 C  py              193     -0.094440   5 C  px        
   278     -0.094489   7 H  s               370     -0.094483  11 H  s         
 
 Vector   13  Occ=1.000000D+00  E=-4.645295D-01
              MO Center= -6.7D-03,  1.0D-01,  1.4D-10, r^2= 2.7D+00
   Bfn.  Coefficient  Atom+Function         Bfn.  Coefficient  Atom+Function  
  ----- ------------  ---------------      ----- ------------  ---------------
     9      0.189041   1 C  px                6      0.175363   1 C  px        
   147      0.172357   4 C  px              144      0.159073   4 C  px        
   239     -0.136870   6 C  px              194     -0.134749   5 C  py        
    56     -0.131373   2 C  py               55     -0.121400   2 C  px        
   191     -0.121432   5 C  py              236     -0.121875   6 C  px        
 
 Vector   14  Occ=1.000000D+00  E=-4.631586D-01
              MO Center=  1.0D-02, -1.6D-01, -4.3D-08, r^2= 4.8D+00
   Bfn.  Coefficient  Atom+Function         Bfn.  Coefficient  Atom+Function  
  ----- ------------  ---------------      ----- ------------  ---------------
     2      0.176558   1 C  s               301      0.136701   8 H  s         
   347      0.136676  10 H  s               140     -0.129403   4 C  s         
   193      0.127764   5 C  px              196      0.120320   5 C  px        
   101     -0.118803   3 C  px              190      0.118565   5 C  px        
    96      0.117521   3 C  s               104     -0.117396   3 C  px        
 
 Vector   15  Occ=1.000000D+00  E=-4.399779D-01
              MO Center= -1.3D-02,  2.1D-01, -2.5D-08, r^2= 4.0D+00
   Bfn.  Coefficient  Atom+Function         Bfn.  Coefficient  Atom+Function  
  ----- ------------  ---------------      ----- ------------  ---------------
   240      0.143968   6 C  py              102      0.139210   3 C  py        
   237      0.132907   6 C  py              278     -0.131461   7 H  s         
   370      0.131459  11 H  s                99      0.130194   3 C  py        
    55      0.129421   2 C  px               56     -0.128747   2 C  py        
   194     -0.126950   5 C  py               53     -0.119658   2 C  py        
 
 Vector   16  Occ=1.000000D+00  E=-3.990529D-01
              MO Center=  4.9D-02, -7.8D-01, -1.0D-08, r^2= 3.3D+00
   Bfn.  Coefficient  Atom+Function         Bfn.  Coefficient  Atom+Function  
  ----- ------------  ---------------      ----- ------------  ---------------
   148      0.233510   4 C  py              145      0.209192   4 C  py        
   324     -0.198592   9 H  s               151      0.172700   4 C  py        
   323     -0.154029   9 H  s                10      0.138647   1 C  py        
    13      0.120983   1 C  py              240      0.115209   6 C  py        
    56      0.109434   2 C  py                7      0.107929   1 C  py        
 
 Vector   17  Occ=1.000000D+00  E=-3.837011D-01
              MO Center= -7.7D-03,  1.2D-01, -5.8D-08, r^2= 2.7D+00
   Bfn.  Coefficient  Atom+Function         Bfn.  Coefficient  Atom+Function  
  ----- ------------  ---------------      ----- ------------  ---------------
    11      0.173451   1 C  pz               57      0.156410   2 C  pz        
   241      0.156398   6 C  pz              103      0.152231   3 C  pz        
   195      0.152219   5 C  pz              149      0.145892   4 C  pz        
     8      0.136824   1 C  pz               54      0.125783   2 C  pz        
   238      0.125774   6 C  pz              100      0.121731   3 C  pz        
 
 Vector   18  Occ=1.000000D+00  E=-3.659896D-01
              MO Center=  9.1D-03, -1.4D-01, -2.8D-08, r^2= 4.1D+00
   Bfn.  Coefficient  Atom+Function         Bfn.  Coefficient  Atom+Function  
  ----- ------------  ---------------      ----- ------------  ---------------
   147     -0.169332   4 C  px              101      0.165178   3 C  px        
   193      0.165098   5 C  px              144     -0.159884   4 C  px        
     9      0.149416   1 C  px               98      0.149456   3 C  px        
   190      0.149153   5 C  px                6      0.141598   1 C  px        
   196      0.135658   5 C  px              104      0.133538   3 C  px        
 
 Vector   19  Occ=1.000000D+00  E=-2.685138D-01
              MO Center=  9.1D-04, -1.5D-02,  7.6D-08, r^2= 3.0D+00
   Bfn.  Coefficient  Atom+Function         Bfn.  Coefficient  Atom+Function  
  ----- ------------  ---------------      ----- ------------  ---------------
    11      0.245300   1 C  pz              149     -0.238556   4 C  pz        
     8      0.192909   1 C  pz              146     -0.190711   4 C  pz        
    14      0.176329   1 C  pz              152     -0.171625   4 C  pz        
   103     -0.126598   3 C  pz              195     -0.126468   5 C  pz        
    57      0.114765   2 C  pz              241      0.114884   6 C  pz        
 
 Vector   20  Occ=1.000000D+00  E=-2.678704D-01
              MO Center= -3.8D-03,  6.1D-02,  2.8D-07, r^2= 3.1D+00
   Bfn.  Coefficient  Atom+Function         Bfn.  Coefficient  Atom+Function  
  ----- ------------  ---------------      ----- ------------  ---------------
   103      0.207440   3 C  pz              195     -0.207521   5 C  pz        
    57      0.203847   2 C  pz              241     -0.203783   6 C  pz        
   100      0.165272   3 C  pz              192     -0.165337   5 C  pz        
    54      0.163241   2 C  pz              238     -0.163190   6 C  pz        
    60      0.150530   2 C  pz              106      0.149949   3 C  pz        
 
 Vector   21  Occ=1.000000D+00  E=-2.484188D-01
              MO Center= -8.2D-02,  1.3D+00,  8.4D-08, r^2= 2.3D+00
   Bfn.  Coefficient  Atom+Function         Bfn.  Coefficient  Atom+Function  
  ----- ------------  ---------------      ----- ------------  ---------------
    10      0.385996   1 C  py               13      0.337693   1 C  py        
     5      0.335249   1 C  s                 7      0.299345   1 C  py        
     4      0.279439   1 C  s                 2      0.138350   1 C  s         
   243     -0.136198   6 C  py               59     -0.134143   2 C  py        
   102      0.112397   3 C  py              194      0.112408   5 C  py        
 
 Vector   22  Occ=0.000000D+00  E=-2.600694D-02
              MO Center= -4.3D-03,  6.8D-02, -1.1D-06, r^2= 4.3D+00
   Bfn.  Coefficient  Atom+Function         Bfn.  Coefficient  Atom+Function  
  ----- ------------  ---------------      ----- ------------  ---------------
   109     -0.320095   3 C  pz              201      0.320075   5 C  pz        
    63      0.314642   2 C  pz              247     -0.314629   6 C  pz        
    60      0.226969   2 C  pz              244     -0.226961   6 C  pz        
   106     -0.223735   3 C  pz              198      0.223722   5 C  pz        
    57      0.218765   2 C  pz              241     -0.218761   6 C  pz        
 
 Vector   23  Occ=0.000000D+00  E=-1.861262D-02
              MO Center=  3.1D-03, -5.0D-02, -4.1D-06, r^2= 4.3D+00
   Bfn.  Coefficient  Atom+Function         Bfn.  Coefficient  Atom+Function  
  ----- ------------  ---------------      ----- ------------  ---------------
   155      0.439591   4 C  pz               17      0.373557   1 C  pz        
   152      0.273939   4 C  pz               11      0.258952   1 C  pz        
   149      0.250782   4 C  pz               14      0.240477   1 C  pz        
   109     -0.226071   3 C  pz              201     -0.226081   5 C  pz        
     8      0.200624   1 C  pz               63     -0.198213   2 C  pz        
 
 Vector   24  Occ=0.000000D+00  E=-1.010977D-02
              MO Center=  6.0D-02, -9.5D-01, -2.2D-06, r^2= 2.0D+01
   Bfn.  Coefficient  Atom+Function         Bfn.  Coefficient  Atom+Function  
  ----- ------------  ---------------      ----- ------------  ---------------
     5      1.446571   1 C  s               279     -0.976441   7 H  s         
   371     -0.976440  11 H  s               326     -0.741609   9 H  s         
   303     -0.730408   8 H  s               349     -0.730275  10 H  s         
   302     -0.650210   8 H  s               348     -0.650216  10 H  s         
   325     -0.588281   9 H  s                51      0.561694   2 C  s         
 
 Vector   25  Occ=0.000000D+00  E= 4.382402D-03
              MO Center=  1.6D-02, -2.6D-01, -9.2D-06, r^2= 2.7D+01
   Bfn.  Coefficient  Atom+Function         Bfn.  Coefficient  Atom+Function  
  ----- ------------  ---------------      ----- ------------  ---------------
    51      2.731361   2 C  s               235     -2.731093   6 C  s         
    97      2.672853   3 C  s               189     -2.672863   5 C  s         
   303      1.996896   8 H  s               349     -1.996997  10 H  s         
    15      1.866742   1 C  px              153      1.807312   4 C  px        
   280      1.539792   7 H  s               372     -1.539690  11 H  s         
 
 Vector   26  Occ=0.000000D+00  E= 8.729878D-03
              MO Center=  4.6D-03, -7.4D-02,  5.5D-05, r^2= 2.7D+01
   Bfn.  Coefficient  Atom+Function         Bfn.  Coefficient  Atom+Function  
  ----- ------------  ---------------      ----- ------------  ---------------
   143      6.244640   4 C  s                51     -4.009464   2 C  s         
   235     -4.009706   6 C  s               326      2.932309   9 H  s         
     5      2.589624   1 C  s               280     -2.388100   7 H  s         
   372     -2.388139  11 H  s               154      1.947131   4 C  py        
   246      1.933876   6 C  py               62      1.829716   2 C  py        
 
 Vector   27  Occ=0.000000D+00  E= 2.670672D-02
              MO Center= -1.5D-02,  2.4D-01, -2.3D-05, r^2= 3.1D+01
   Bfn.  Coefficient  Atom+Function         Bfn.  Coefficient  Atom+Function  
  ----- ------------  ---------------      ----- ------------  ---------------
   280      3.931864   7 H  s               372     -3.931966  11 H  s         
    51      3.657984   2 C  s               235     -3.658427   6 C  s         
   303     -3.601653   8 H  s               349      3.601533  10 H  s         
    61      2.221546   2 C  px               97     -2.189627   3 C  s         
   189      2.189631   5 C  s               199     -2.040712   5 C  px        
 
 Vector   28  Occ=0.000000D+00  E= 3.221663D-02
              MO Center=  3.9D-02, -6.2D-01, -1.2D-04, r^2= 2.9D+01
   Bfn.  Coefficient  Atom+Function         Bfn.  Coefficient  Atom+Function  
  ----- ------------  ---------------      ----- ------------  ---------------
     5      6.397160   1 C  s               326     -4.998371   9 H  s         
   303      3.725358   8 H  s               349      3.725655  10 H  s         
    97     -2.179924   3 C  s               154     -2.176394   4 C  py        
   189     -2.179591   5 C  s               199     -1.647687   5 C  px        
   245      1.634023   6 C  px               61     -1.580503   2 C  px        
 
 Vector   29  Occ=0.000000D+00  E= 4.329448D-02
              MO Center=  1.4D-02, -2.2D-01,  9.3D-06, r^2= 1.3D+01
   Bfn.  Coefficient  Atom+Function         Bfn.  Coefficient  Atom+Function  
  ----- ------------  ---------------      ----- ------------  ---------------
   155      0.598801   4 C  pz               63      0.576437   2 C  pz        
   247      0.576396   6 C  pz               17     -0.260470   1 C  pz        
    60     -0.154899   2 C  pz              244     -0.154921   6 C  pz        
   289     -0.123513   7 H  pz              381     -0.123510  11 H  pz        
   259      0.119703   6 C  d -1             77      0.109797   2 C  d  1      
 
 Vector   30  Occ=0.000000D+00  E= 5.496341D-02
              MO Center=  9.4D-03, -1.5D-01, -4.0D-05, r^2= 1.5D+01
   Bfn.  Coefficient  Atom+Function         Bfn.  Coefficient  Atom+Function  
  ----- ------------  ---------------      ----- ------------  ---------------
     5     10.710283   1 C  s               143      5.282560   4 C  s         
    51     -4.488803   2 C  s               235     -4.488741   6 C  s         
   303     -2.801226   8 H  s               349     -2.801160  10 H  s         
   326      2.060643   9 H  s               199      2.006719   5 C  px        
    97     -1.951888   3 C  s               189     -1.951775   5 C  s         
 
 Vector   31  Occ=0.000000D+00  E= 6.334990D-02
              MO Center= -4.1D-02,  6.5D-01, -1.0D-04, r^2= 2.8D+01
   Bfn.  Coefficient  Atom+Function         Bfn.  Coefficient  Atom+Function  
  ----- ------------  ---------------      ----- ------------  ---------------
     5     24.377476   1 C  s                51     -9.853210   2 C  s         
   235     -9.853035   6 C  s               143      7.621282   4 C  s         
    97     -6.510904   3 C  s               189     -6.510804   5 C  s         
   326      5.865184   9 H  s               154      4.770846   4 C  py        
   303     -4.682201   8 H  s               349     -4.682338  10 H  s         
 
 Vector   32  Occ=0.000000D+00  E= 6.574612D-02
              MO Center=  1.6D-03, -2.5D-02,  5.4D-04, r^2= 1.8D+01
   Bfn.  Coefficient  Atom+Function         Bfn.  Coefficient  Atom+Function  
  ----- ------------  ---------------      ----- ------------  ---------------
   109      0.976587   3 C  pz              201     -0.976577   5 C  pz        
    63      0.770299   2 C  pz              247     -0.770261   6 C  pz        
   169     -0.676974   4 C  d  1             31     -0.583290   1 C  d  1      
   106      0.492402   3 C  pz              198     -0.492414   5 C  pz        
    60      0.488376   2 C  pz              244     -0.488349   6 C  pz        
 
 Vector   33  Occ=0.000000D+00  E= 6.826313D-02
              MO Center= -1.2D-02,  1.9D-01, -2.7D-04, r^2= 1.8D+01
   Bfn.  Coefficient  Atom+Function         Bfn.  Coefficient  Atom+Function  
  ----- ------------  ---------------      ----- ------------  ---------------
    63      1.024336   2 C  pz              247      1.024308   6 C  pz        
   109     -0.811982   3 C  pz              201     -0.811871   5 C  pz        
   155     -0.750708   4 C  pz               14      0.629611   1 C  pz        
   152     -0.617701   4 C  pz               17      0.458649   1 C  pz        
   213     -0.449530   5 C  d -1            121     -0.405703   3 C  d -1      
 
 Vector   34  Occ=0.000000D+00  E= 7.645854D-02
              MO Center=  9.3D-03, -1.6D-01, -1.3D-04, r^2= 3.4D+01
   Bfn.  Coefficient  Atom+Function         Bfn.  Coefficient  Atom+Function  
  ----- ------------  ---------------      ----- ------------  ---------------
    51     13.863647   2 C  s               235    -13.865558   6 C  s         
    97     12.412392   3 C  s               189    -12.413215   5 C  s         
    15      7.678796   1 C  px              153      7.709465   4 C  px        
   107      4.765497   3 C  px              303      4.692806   8 H  s         
   349     -4.692179  10 H  s               199      4.462555   5 C  px        
 
 Vector   35  Occ=0.000000D+00  E= 7.792219D-02
              MO Center=  2.1D-01, -3.3D+00,  1.3D-04, r^2= 2.1D+01
   Bfn.  Coefficient  Atom+Function         Bfn.  Coefficient  Atom+Function  
  ----- ------------  ---------------      ----- ------------  ---------------
   143     18.269716   4 C  s                51    -13.444895   2 C  s         
   235    -13.440843   6 C  s               326      7.025880   9 H  s         
    62      5.652854   2 C  py              246      5.676599   6 C  py        
   200      5.393821   5 C  py              154      5.273394   4 C  py        
   108      5.036732   3 C  py              279      4.191229   7 H  s         
 
 Vector   36  Occ=0.000000D+00  E= 8.155543D-02
              MO Center= -8.8D-02,  1.4D+00,  7.0D-05, r^2= 2.8D+01
   Bfn.  Coefficient  Atom+Function         Bfn.  Coefficient  Atom+Function  
  ----- ------------  ---------------      ----- ------------  ---------------
   143     20.715118   4 C  s                51     -8.948160   2 C  s         
   235     -8.950825   6 C  s               246      5.262114   6 C  py        
    62      5.168060   2 C  py              325     -4.966111   9 H  s         
   280     -4.564519   7 H  s               372     -4.565105  11 H  s         
   200      4.484578   5 C  py              326      4.501472   9 H  s         
 
 Vector   37  Occ=0.000000D+00  E= 8.317406D-02
              MO Center=  4.6D-02, -7.3D-01, -1.1D-05, r^2= 2.2D+01
   Bfn.  Coefficient  Atom+Function         Bfn.  Coefficient  Atom+Function  
  ----- ------------  ---------------      ----- ------------  ---------------
    97      4.939097   3 C  s               189     -4.939197   5 C  s         
    51     -3.129940   2 C  s               235      3.131882   6 C  s         
   108      2.795452   3 C  py              303      2.802793   8 H  s         
   349     -2.802841  10 H  s               200     -2.681467   5 C  py        
   153      2.603190   4 C  px               96      2.072263   3 C  s         
 
 Vector   38  Occ=0.000000D+00  E= 9.540493D-02
              MO Center= -5.5D-02,  8.8D-01,  1.4D-05, r^2= 3.1D+01
   Bfn.  Coefficient  Atom+Function         Bfn.  Coefficient  Atom+Function  
  ----- ------------  ---------------      ----- ------------  ---------------
    51     17.685339   2 C  s               235    -17.686797   6 C  s         
   280      7.217560   7 H  s               372     -7.217519  11 H  s         
    97     -6.902565   3 C  s               189      6.902715   5 C  s         
   108     -6.462365   3 C  py              303     -6.201121   8 H  s         
   349      6.200641  10 H  s               200      5.920029   5 C  py        
 
 Vector   39  Occ=0.000000D+00  E= 1.018011D-01
              MO Center= -7.1D-03,  1.1D-01, -3.3D-04, r^2= 1.9D+01
   Bfn.  Coefficient  Atom+Function         Bfn.  Coefficient  Atom+Function  
  ----- ------------  ---------------      ----- ------------  ---------------
    51     13.733159   2 C  s               235    -13.732235   6 C  s         
    97     10.883983   3 C  s               189    -10.884343   5 C  s         
    15      9.999755   1 C  px              153      9.715818   4 C  px        
   246     -6.096950   6 C  py              108     -6.022436   3 C  py        
   200      5.989324   5 C  py               62      5.910468   2 C  py        
 
 Vector   40  Occ=0.000000D+00  E= 1.064767D-01
              MO Center= -8.0D-03,  1.3D-01, -5.7D-04, r^2= 2.1D+01
   Bfn.  Coefficient  Atom+Function         Bfn.  Coefficient  Atom+Function  
  ----- ------------  ---------------      ----- ------------  ---------------
   143     18.277388   4 C  s                51     -9.938337   2 C  s         
   235     -9.938409   6 C  s                 5     -9.463115   1 C  s         
   107     -8.758463   3 C  px              199      7.977158   5 C  px        
   245     -7.044022   6 C  px              200      6.727957   5 C  py        
    61      6.489002   2 C  px              108      5.673330   3 C  py        
 
 Vector   41  Occ=0.000000D+00  E= 1.082043D-01
              MO Center= -1.0D-02,  1.6D-01, -9.4D-05, r^2= 2.2D+01
   Bfn.  Coefficient  Atom+Function         Bfn.  Coefficient  Atom+Function  
  ----- ------------  ---------------      ----- ------------  ---------------
    63      3.391627   2 C  pz              247     -3.391703   6 C  pz        
   109     -3.363069   3 C  pz              201      3.363531   5 C  pz        
    60      0.696858   2 C  pz              244     -0.696879   6 C  pz        
   106     -0.636769   3 C  pz              198      0.636867   5 C  pz        
    77     -0.380430   2 C  d  1            215      0.361337   5 C  d  1      
 
 Vector   42  Occ=0.000000D+00  E= 1.089659D-01
              MO Center=  3.0D-02, -4.7D-01,  2.2D-03, r^2= 2.1D+01
   Bfn.  Coefficient  Atom+Function         Bfn.  Coefficient  Atom+Function  
  ----- ------------  ---------------      ----- ------------  ---------------
   155      5.321738   4 C  pz              109     -3.442917   3 C  pz        
   201     -3.442602   5 C  pz               17      2.510781   1 C  pz        
   152      0.983510   4 C  pz              106     -0.603359   3 C  pz        
   198     -0.603308   5 C  pz              167      0.569435   4 C  d -1      
    14      0.504563   1 C  pz               63     -0.475292   2 C  pz        
 
 Vector   43  Occ=0.000000D+00  E= 1.095004D-01
              MO Center=  2.9D-02, -4.5D-01, -1.1D-03, r^2= 2.7D+01
   Bfn.  Coefficient  Atom+Function         Bfn.  Coefficient  Atom+Function  
  ----- ------------  ---------------      ----- ------------  ---------------
   326      7.669655   9 H  s               154      7.056001   4 C  py        
   303     -6.475221   8 H  s               349     -6.475542  10 H  s         
   143     -5.604345   4 C  s               108     -4.429171   3 C  py        
   200     -4.183461   5 C  py               62     -4.156002   2 C  py        
   246     -4.136672   6 C  py                4      3.926056   1 C  s         
 
 Vector   44  Occ=0.000000D+00  E= 1.178174D-01
              MO Center= -4.1D-02,  6.5D-01, -4.2D-04, r^2= 1.4D+01
   Bfn.  Coefficient  Atom+Function         Bfn.  Coefficient  Atom+Function  
  ----- ------------  ---------------      ----- ------------  ---------------
    17      6.880041   1 C  pz               63     -6.023361   2 C  pz        
   247     -6.023198   6 C  pz              109      5.053384   3 C  pz        
   201      5.053211   5 C  pz              155     -4.823728   4 C  pz        
    14      1.235835   1 C  pz               60     -1.020601   2 C  pz        
   244     -1.020566   6 C  pz              106      0.892416   3 C  pz        
 
 Vector   45  Occ=0.000000D+00  E= 1.264087D-01
              MO Center= -1.8D-02,  2.9D-01, -1.9D-05, r^2= 2.5D+01
   Bfn.  Coefficient  Atom+Function         Bfn.  Coefficient  Atom+Function  
  ----- ------------  ---------------      ----- ------------  ---------------
    51      7.587675   2 C  s               235     -7.587537   6 C  s         
   107      7.204162   3 C  px              199      7.127075   5 C  px        
   245     -7.037285   6 C  px               61     -6.927008   2 C  px        
    15      6.444014   1 C  px               97     -6.192468   3 C  s         
   189      6.192574   5 C  s               153     -5.818504   4 C  px        
 
 Vector   46  Occ=0.000000D+00  E= 1.274502D-01
              MO Center= -1.2D-02,  1.9D-01,  1.3D-04, r^2= 2.6D+01
   Bfn.  Coefficient  Atom+Function         Bfn.  Coefficient  Atom+Function  
  ----- ------------  ---------------      ----- ------------  ---------------
   154     -8.032258   4 C  py               16      7.424964   1 C  py        
   108      6.889130   3 C  py               62     -6.576282   2 C  py        
   200      6.571262   5 C  py              246     -6.383385   6 C  py        
   326     -4.051706   9 H  s                 5      3.565174   1 C  s         
   303      3.164936   8 H  s               349      3.165263  10 H  s         
 
 Vector   47  Occ=0.000000D+00  E= 1.609559D-01
              MO Center= -8.5D-03,  1.4D-01,  9.5D-05, r^2= 1.7D+01
   Bfn.  Coefficient  Atom+Function         Bfn.  Coefficient  Atom+Function  
  ----- ------------  ---------------      ----- ------------  ---------------
    17      8.192741   1 C  pz               63     -8.004355   2 C  pz        
   247     -8.004464   6 C  pz              155     -7.856546   4 C  pz        
   109      7.771200   3 C  pz              201      7.771311   5 C  pz        
    60     -1.191950   2 C  pz              106      1.192828   3 C  pz        
   198      1.192860   5 C  pz              244     -1.191978   6 C  pz        
 
 Vector   48  Occ=0.000000D+00  E= 1.660210D-01
              MO Center= -8.9D-02,  1.4D+00,  3.1D-04, r^2= 2.2D+01
   Bfn.  Coefficient  Atom+Function         Bfn.  Coefficient  Atom+Function  
  ----- ------------  ---------------      ----- ------------  ---------------
     5     59.213766   1 C  s                51    -25.982883   2 C  s         
   143     25.963465   4 C  s               235    -25.983554   6 C  s         
    97    -14.417308   3 C  s               189    -14.416486   5 C  s         
   154      7.428801   4 C  py              245      6.814459   6 C  px        
    61     -6.399632   2 C  px              326      6.156398   9 H  s         
 
 Vector   49  Occ=0.000000D+00  E= 1.754234D-01
              MO Center=  2.5D-02, -3.9D-01, -1.7D-04, r^2= 1.1D+01
   Bfn.  Coefficient  Atom+Function         Bfn.  Coefficient  Atom+Function  
  ----- ------------  ---------------      ----- ------------  ---------------
   335      1.104566   9 H  pz              312      1.079195   8 H  pz        
   358      1.079143  10 H  pz              289      0.973151   7 H  pz        
   381      0.973106  11 H  pz               17      0.959514   1 C  pz        
    63     -0.885042   2 C  pz              247     -0.885011   6 C  pz        
   106     -0.843125   3 C  pz              198     -0.843068   5 C  pz        
 
 Vector   50  Occ=0.000000D+00  E= 1.864251D-01
              MO Center=  3.4D-02, -5.5D-01,  9.6D-05, r^2= 1.5D+01
   Bfn.  Coefficient  Atom+Function         Bfn.  Coefficient  Atom+Function  
  ----- ------------  ---------------      ----- ------------  ---------------
     5     15.508850   1 C  s                97     -7.273103   3 C  s         
   189     -7.272637   5 C  s                51     -4.474719   2 C  s         
   235     -4.474555   6 C  s               325      4.425415   9 H  s         
    62     -4.045083   2 C  py              154      3.980568   4 C  py        
   246     -3.823060   6 C  py              302      3.261249   8 H  s         
 
 Vector   51  Occ=0.000000D+00  E= 1.980409D-01
              MO Center= -3.0D-02,  4.7D-01,  3.6D-04, r^2= 2.3D+01
   Bfn.  Coefficient  Atom+Function         Bfn.  Coefficient  Atom+Function  
  ----- ------------  ---------------      ----- ------------  ---------------
    51     44.606562   2 C  s               235    -44.589558   6 C  s         
    97     25.201106   3 C  s               189    -25.205693   5 C  s         
    15     18.497469   1 C  px              153     17.067312   4 C  px        
   302    -14.010751   8 H  s               348     14.012247  10 H  s         
   200      9.224567   5 C  py              108     -8.513626   3 C  py        
 
 Vector   52  Occ=0.000000D+00  E= 1.984420D-01
              MO Center=  4.7D-02, -7.3D-01, -5.0D-04, r^2= 2.3D+01
   Bfn.  Coefficient  Atom+Function         Bfn.  Coefficient  Atom+Function  
  ----- ------------  ---------------      ----- ------------  ---------------
   143     61.321040   4 C  s                51    -34.524189   2 C  s         
   235    -34.546032   6 C  s               325    -16.864540   9 H  s         
    62     14.721847   2 C  py              246     14.448918   6 C  py        
   200     13.770401   5 C  py              108     12.557566   3 C  py        
     5    -11.578481   1 C  s               279     11.179349   7 H  s         
 
 Vector   53  Occ=0.000000D+00  E= 2.154388D-01
              MO Center=  8.8D-02, -1.4D+00, -4.0D-05, r^2= 1.5D+01
   Bfn.  Coefficient  Atom+Function         Bfn.  Coefficient  Atom+Function  
  ----- ------------  ---------------      ----- ------------  ---------------
    97     13.856713   3 C  s               189    -13.856189   5 C  s         
    96      6.547351   3 C  s               188     -6.547437   5 C  s         
   153      6.323190   4 C  px              279     -5.134840   7 H  s         
   371      5.134662  11 H  s               303      4.736494   8 H  s         
   349     -4.736238  10 H  s               246     -4.492469   6 C  py        
 
 Vector   54  Occ=0.000000D+00  E= 2.182734D-01
              MO Center=  1.8D-02, -2.8D-01, -1.8D-04, r^2= 1.5D+01
   Bfn.  Coefficient  Atom+Function         Bfn.  Coefficient  Atom+Function  
  ----- ------------  ---------------      ----- ------------  ---------------
   143     25.783835   4 C  s                51    -17.781141   2 C  s         
   235    -17.792591   6 C  s                 5     15.976983   1 C  s         
    16     -6.446850   1 C  py              325     -6.048944   9 H  s         
    62      4.840108   2 C  py              246      4.722814   6 C  py        
   279      3.739712   7 H  s               371      3.740289  11 H  s         
 
 Vector   55  Occ=0.000000D+00  E= 2.191116D-01
              MO Center=  5.4D-03, -8.4D-02,  1.1D-03, r^2= 1.5D+01
   Bfn.  Coefficient  Atom+Function         Bfn.  Coefficient  Atom+Function  
  ----- ------------  ---------------      ----- ------------  ---------------
    51     19.802956   2 C  s               235    -19.793686   6 C  s         
   108     -8.471386   3 C  py              200      8.113089   5 C  py        
    15      7.529256   1 C  px              302     -6.933971   8 H  s         
   348      6.934010  10 H  s               153      6.304173   4 C  px        
   246     -4.034606   6 C  py               62      3.898568   2 C  py        
 
 Vector   56  Occ=0.000000D+00  E= 2.301188D-01
              MO Center= -1.8D-02,  2.9D-01,  1.9D-03, r^2= 1.8D+01
   Bfn.  Coefficient  Atom+Function         Bfn.  Coefficient  Atom+Function  
  ----- ------------  ---------------      ----- ------------  ---------------
   199      4.914073   5 C  px              107      4.648017   3 C  px        
   153     -3.564702   4 C  px               50     -3.271734   2 C  s         
   234      3.271325   6 C  s               303      3.159032   8 H  s         
   349     -3.158343  10 H  s                15     -2.625531   1 C  px        
   108      2.423465   3 C  py               59      1.952496   2 C  py        
 
 Vector   57  Occ=0.000000D+00  E= 2.311984D-01
              MO Center= -4.6D-05,  9.7D-04, -3.8D-03, r^2= 1.6D+01
   Bfn.  Coefficient  Atom+Function         Bfn.  Coefficient  Atom+Function  
  ----- ------------  ---------------      ----- ------------  ---------------
   106      2.142776   3 C  pz              198     -2.142789   5 C  pz        
    60      2.047064   2 C  pz              244     -2.047027   6 C  pz        
   312     -1.818319   8 H  pz              358      1.818360  10 H  pz        
   289     -1.720547   7 H  pz              381      1.720515  11 H  pz        
   169     -1.379647   4 C  d  1             31     -1.247076   1 C  d  1      
 
 Vector   58  Occ=0.000000D+00  E= 2.354319D-01
              MO Center= -1.3D-02,  2.1D-01,  4.7D-04, r^2= 1.6D+01
   Bfn.  Coefficient  Atom+Function         Bfn.  Coefficient  Atom+Function  
  ----- ------------  ---------------      ----- ------------  ---------------
   143     14.935169   4 C  s                51    -10.476219   2 C  s         
   235    -10.467439   6 C  s               107     -8.190170   3 C  px        
   199      7.761209   5 C  px               61      5.431315   2 C  px        
   245     -5.309788   6 C  px              303     -4.418900   8 H  s         
   349     -4.420410  10 H  s                 5      4.072257   1 C  s         
 
 Vector   59  Occ=0.000000D+00  E= 2.365062D-01
              MO Center= -4.5D-03,  7.4D-02,  1.0D-03, r^2= 1.7D+01
   Bfn.  Coefficient  Atom+Function         Bfn.  Coefficient  Atom+Function  
  ----- ------------  ---------------      ----- ------------  ---------------
    97    -33.168040   3 C  s               189     33.168501   5 C  s         
    51     31.540728   2 C  s               235    -31.544426   6 C  s         
    96    -14.386040   3 C  s               188     14.385470   5 C  s         
   279     10.795586   7 H  s               371    -10.794618  11 H  s         
   302    -10.656048   8 H  s               348     10.655888  10 H  s         
 
 Vector   60  Occ=0.000000D+00  E= 2.434520D-01
              MO Center=  2.7D-03, -4.3D-02, -4.5D-04, r^2= 1.5D+01
   Bfn.  Coefficient  Atom+Function         Bfn.  Coefficient  Atom+Function  
  ----- ------------  ---------------      ----- ------------  ---------------
   152      3.413942   4 C  pz               14     -3.025938   1 C  pz        
   289      2.170908   7 H  pz              381      2.170920  11 H  pz        
   335     -2.124812   9 H  pz              261      2.001853   6 C  d  1      
    77     -1.987188   2 C  d  1             63     -1.598032   2 C  pz        
   247     -1.597959   6 C  pz              155      1.369890   4 C  pz        
 
 Vector   61  Occ=0.000000D+00  E= 2.594991D-01
              MO Center=  3.8D-02, -6.0D-01,  6.3D-05, r^2= 1.7D+01
   Bfn.  Coefficient  Atom+Function         Bfn.  Coefficient  Atom+Function  
  ----- ------------  ---------------      ----- ------------  ---------------
     5      8.706104   1 C  s               108     -6.643575   3 C  py        
   200     -6.054110   5 C  py              303     -5.178239   8 H  s         
   349     -5.178225  10 H  s               199      5.077216   5 C  px        
   197     -4.838398   5 C  py              143     -4.805633   4 C  s         
   105     -4.736484   3 C  py              154      4.356424   4 C  py        
 
 Vector   62  Occ=0.000000D+00  E= 2.620266D-01
              MO Center=  6.8D-02, -1.1D+00, -5.3D-05, r^2= 1.7D+01
   Bfn.  Coefficient  Atom+Function         Bfn.  Coefficient  Atom+Function  
  ----- ------------  ---------------      ----- ------------  ---------------
     5     18.963311   1 C  s               154     15.381609   4 C  py        
   143     15.152498   4 C  s                51    -14.562591   2 C  s         
   235    -14.563881   6 C  s               326      9.188097   9 H  s         
     4      6.019366   1 C  s               108     -4.778478   3 C  py        
    97     -4.661445   3 C  s               189     -4.660035   5 C  s         
 
 Vector   63  Occ=0.000000D+00  E= 2.676785D-01
              MO Center= -2.7D-02,  4.3D-01,  6.5D-05, r^2= 2.0D+01
   Bfn.  Coefficient  Atom+Function         Bfn.  Coefficient  Atom+Function  
  ----- ------------  ---------------      ----- ------------  ---------------
    51     20.195838   2 C  s               235    -20.195522   6 C  s         
    97    -11.909012   3 C  s               189     11.909363   5 C  s         
    61     11.014909   2 C  px              245     10.263914   6 C  px        
    96     -8.755259   3 C  s               188      8.755457   5 C  s         
   279      8.764202   7 H  s               371     -8.764430  11 H  s         
 
 Vector   64  Occ=0.000000D+00  E= 2.747988D-01
              MO Center= -1.5D-03,  2.3D-02,  6.8D-05, r^2= 1.4D+01
   Bfn.  Coefficient  Atom+Function         Bfn.  Coefficient  Atom+Function  
  ----- ------------  ---------------      ----- ------------  ---------------
   143      8.950785   4 C  s                 5      8.703534   1 C  s         
   154      5.768234   4 C  py              279     -5.655234   7 H  s         
   371     -5.654799  11 H  s               302     -4.648912   8 H  s         
   348     -4.648524  10 H  s               325     -4.357617   9 H  s         
    16     -4.033295   1 C  py              246      3.262743   6 C  py        
 
 Vector   65  Occ=0.000000D+00  E= 2.829805D-01
              MO Center= -1.2D-02,  1.8D-01, -1.8D-05, r^2= 1.6D+01
   Bfn.  Coefficient  Atom+Function         Bfn.  Coefficient  Atom+Function  
  ----- ------------  ---------------      ----- ------------  ---------------
    12      9.529731   1 C  px               97      8.896027   3 C  s         
   189     -8.896064   5 C  s               302      8.100597   8 H  s         
   348     -8.100197  10 H  s                51     -8.023544   2 C  s         
   235      8.022978   6 C  s               199      7.633169   5 C  px        
   107      7.160998   3 C  px              150      6.193639   4 C  px        
 
 Vector   66  Occ=0.000000D+00  E= 2.954387D-01
              MO Center= -3.3D-03,  5.2D-02, -2.2D-05, r^2= 1.6D+01
   Bfn.  Coefficient  Atom+Function         Bfn.  Coefficient  Atom+Function  
  ----- ------------  ---------------      ----- ------------  ---------------
    63      3.201434   2 C  pz              109     -3.188691   3 C  pz        
   201      3.188297   5 C  pz              247     -3.201206   6 C  pz        
   289     -2.279583   7 H  pz              381      2.279608  11 H  pz        
    60      2.256822   2 C  pz              244     -2.256825   6 C  pz        
   312      2.261885   8 H  pz              358     -2.261785  10 H  pz        
 
 Vector   67  Occ=0.000000D+00  E= 2.962829D-01
              MO Center= -6.0D-02,  9.6D-01,  4.1D-04, r^2= 1.4D+01
   Bfn.  Coefficient  Atom+Function         Bfn.  Coefficient  Atom+Function  
  ----- ------------  ---------------      ----- ------------  ---------------
     4     10.428864   1 C  s                59     -5.742978   2 C  py        
   243     -5.634196   6 C  py                5      5.528980   1 C  s         
   105     -5.529281   3 C  py              197     -5.140820   5 C  py        
    16      4.276086   1 C  py              279     -4.187813   7 H  s         
   371     -4.187558  11 H  s                13      3.915302   1 C  py        
 
 Vector   68  Occ=0.000000D+00  E= 3.080402D-01
              MO Center=  1.7D-02, -2.7D-01, -4.6D-04, r^2= 1.5D+01
   Bfn.  Coefficient  Atom+Function         Bfn.  Coefficient  Atom+Function  
  ----- ------------  ---------------      ----- ------------  ---------------
   155      5.178107   4 C  pz               14      4.363448   1 C  pz        
   109     -3.739460   3 C  pz              201     -3.739597   5 C  pz        
   335     -2.710439   9 H  pz               60     -2.049581   2 C  pz        
   244     -2.049472   6 C  pz              152      1.852445   4 C  pz        
    17      1.841723   1 C  pz               29     -1.719338   1 C  d -1      
 
 Vector   69  Occ=0.000000D+00  E= 3.150475D-01
              MO Center=  4.7D-03, -7.3D-02,  1.8D-05, r^2= 9.1D+00
   Bfn.  Coefficient  Atom+Function         Bfn.  Coefficient  Atom+Function  
  ----- ------------  ---------------      ----- ------------  ---------------
   261      1.253238   6 C  d  1             77      1.133484   2 C  d  1      
   169     -1.083542   4 C  d  1             75     -1.023993   2 C  d -1      
   259      0.873678   6 C  d -1            289     -0.721136   7 H  pz        
   381      0.721136  11 H  pz               31      0.635123   1 C  d  1      
    60     -0.336648   2 C  pz              244      0.336865   6 C  pz        
 
 Vector   70  Occ=0.000000D+00  E= 3.284738D-01
              MO Center=  3.9D-02, -6.2D-01,  7.5D-05, r^2= 1.5D+01
   Bfn.  Coefficient  Atom+Function         Bfn.  Coefficient  Atom+Function  
  ----- ------------  ---------------      ----- ------------  ---------------
   142     12.143063   4 C  s                96      8.718567   3 C  s         
   188      8.718713   5 C  s               151     -6.838894   4 C  py        
   325     -5.845112   9 H  s                 4     -5.239527   1 C  s         
   334     -5.006606   9 H  py                5      4.907599   1 C  s         
   302     -4.388742   8 H  s               348     -4.388185  10 H  s         
 
 Vector   71  Occ=0.000000D+00  E= 3.347622D-01
              MO Center= -1.6D-03,  2.5D-02,  1.9D-04, r^2= 7.7D+00
   Bfn.  Coefficient  Atom+Function         Bfn.  Coefficient  Atom+Function  
  ----- ------------  ---------------      ----- ------------  ---------------
   289      2.029582   7 H  pz              381      2.029723  11 H  pz        
   335      1.839508   9 H  pz               14     -1.773209   1 C  pz        
   155     -1.702779   4 C  pz               63     -1.544853   2 C  pz        
   247     -1.544869   6 C  pz               77     -1.512190   2 C  d  1      
   261      1.412053   6 C  d  1            106     -1.285614   3 C  pz        
 
 Vector   72  Occ=0.000000D+00  E= 3.433188D-01
              MO Center=  2.4D-02, -3.9D-01, -4.4D-03, r^2= 1.2D+01
   Bfn.  Coefficient  Atom+Function         Bfn.  Coefficient  Atom+Function  
  ----- ------------  ---------------      ----- ------------  ---------------
   169      3.294458   4 C  d  1             31      2.702916   1 C  d  1      
   312     -2.481244   8 H  pz              358      2.480883  10 H  pz        
   123      2.185033   3 C  d  1            215      2.144531   5 C  d  1      
   106     -1.797751   3 C  pz              198      1.797785   5 C  pz        
   289     -1.427850   7 H  pz              381      1.427773  11 H  pz        
 
 Vector   73  Occ=0.000000D+00  E= 3.449250D-01
              MO Center= -3.6D-02,  5.6D-01, -2.1D-03, r^2= 1.2D+01
   Bfn.  Coefficient  Atom+Function         Bfn.  Coefficient  Atom+Function  
  ----- ------------  ---------------      ----- ------------  ---------------
   143     23.708972   4 C  s               325    -13.020492   9 H  s         
   279     11.904256   7 H  s               371     11.906127  11 H  s         
    51    -11.764374   2 C  s               235    -11.769984   6 C  s         
     5     -7.677183   1 C  s               197     -6.907824   5 C  py        
   105     -6.787956   3 C  py              243     -6.022570   6 C  py        
 
 Vector   74  Occ=0.000000D+00  E= 3.478280D-01
              MO Center=  9.7D-03, -1.5D-01,  4.0D-03, r^2= 1.2D+01
   Bfn.  Coefficient  Atom+Function         Bfn.  Coefficient  Atom+Function  
  ----- ------------  ---------------      ----- ------------  ---------------
    51     21.175935   2 C  s               235    -21.171926   6 C  s         
   302    -11.982238   8 H  s               348     11.984249  10 H  s         
    97     10.954989   3 C  s               189    -10.957116   5 C  s         
   279     -9.763271   7 H  s               371      9.757946  11 H  s         
    12     -8.092833   1 C  px              150     -7.036884   4 C  px        
 
 Vector   75  Occ=0.000000D+00  E= 3.481672D-01
              MO Center=  3.3D-02, -5.2D-01,  3.1D-03, r^2= 1.3D+01
   Bfn.  Coefficient  Atom+Function         Bfn.  Coefficient  Atom+Function  
  ----- ------------  ---------------      ----- ------------  ---------------
   155     -3.972731   4 C  pz               17      3.782837   1 C  pz        
   109      3.562948   3 C  pz              201      3.563068   5 C  pz        
    63     -3.452853   2 C  pz              247     -3.452928   6 C  pz        
   152     -3.002102   4 C  pz              213     -2.310127   5 C  d -1      
   289      2.266674   7 H  pz              381      2.266608  11 H  pz        
 
 Vector   76  Occ=0.000000D+00  E= 3.527419D-01
              MO Center=  3.3D-02, -5.3D-01, -2.0D-04, r^2= 1.4D+01
   Bfn.  Coefficient  Atom+Function         Bfn.  Coefficient  Atom+Function  
  ----- ------------  ---------------      ----- ------------  ---------------
    17      6.393593   1 C  pz               63     -5.862014   2 C  pz        
   247     -5.862072   6 C  pz              109      5.128456   3 C  pz        
   201      5.128485   5 C  pz              155     -4.855628   4 C  pz        
   335      3.962163   9 H  pz               14      3.795424   1 C  pz        
   167      3.079010   4 C  d -1             60     -2.684259   2 C  pz        
 
 Vector   77  Occ=0.000000D+00  E= 3.546330D-01
              MO Center= -2.0D-02,  3.2D-01, -6.8D-04, r^2= 1.5D+01
   Bfn.  Coefficient  Atom+Function         Bfn.  Coefficient  Atom+Function  
  ----- ------------  ---------------      ----- ------------  ---------------
     5     31.364012   1 C  s               143     15.885827   4 C  s         
    51    -15.742773   2 C  s               235    -15.740541   6 C  s         
   151    -11.077172   4 C  py              196     -7.598261   5 C  px        
    50      7.385737   2 C  s               234      7.385681   6 C  s         
    13      7.277652   1 C  py              104      7.157549   3 C  px        
 
 Vector   78  Occ=0.000000D+00  E= 3.599058D-01
              MO Center= -4.7D-02,  7.5D-01,  2.4D-04, r^2= 1.3D+01
   Bfn.  Coefficient  Atom+Function         Bfn.  Coefficient  Atom+Function  
  ----- ------------  ---------------      ----- ------------  ---------------
   289      3.406327   7 H  pz              381     -3.406418  11 H  pz        
    60      3.157941   2 C  pz              244     -3.157954   6 C  pz        
    77     -3.083713   2 C  d  1            121     -3.088429   3 C  d -1      
   259      3.025829   6 C  d -1            213      2.787050   5 C  d -1      
   312     -2.763444   8 H  pz              358      2.763335  10 H  pz        
 
 Vector   79  Occ=0.000000D+00  E= 3.685608D-01
              MO Center=  3.6D-02, -5.7D-01, -1.6D-04, r^2= 1.3D+01
   Bfn.  Coefficient  Atom+Function         Bfn.  Coefficient  Atom+Function  
  ----- ------------  ---------------      ----- ------------  ---------------
    96     10.730894   3 C  s               188     10.729756   5 C  s         
   104     -8.499753   3 C  px              196      8.490164   5 C  px        
   142     -7.536299   4 C  s                 5      7.223435   1 C  s         
   212      5.398289   5 C  d -2            258      5.320343   6 C  d -2      
   120     -5.227018   3 C  d -2            242     -5.090226   6 C  px        
 
 Vector   80  Occ=0.000000D+00  E= 3.720964D-01
              MO Center=  2.0D-02, -3.1D-01, -2.1D-04, r^2= 1.3D+01
   Bfn.  Coefficient  Atom+Function         Bfn.  Coefficient  Atom+Function  
  ----- ------------  ---------------      ----- ------------  ---------------
    97      9.834508   3 C  s               189     -9.833287   5 C  s         
    50      9.032207   2 C  s               234     -9.031664   6 C  s         
   279     -5.478470   7 H  s               371      5.480821  11 H  s         
   357      5.246943  10 H  py              311     -5.125710   8 H  py        
   212     -4.882555   5 C  d -2             51     -4.813773   2 C  s         
 
 Vector   81  Occ=0.000000D+00  E= 3.819116D-01
              MO Center=  3.6D-02, -5.7D-01, -5.1D-06, r^2= 1.6D+01
   Bfn.  Coefficient  Atom+Function         Bfn.  Coefficient  Atom+Function  
  ----- ------------  ---------------      ----- ------------  ---------------
   166      9.080748   4 C  d -2            333      7.118321   9 H  px        
   150     -6.663199   4 C  px              216     -6.555730   5 C  d  2      
   124      6.100536   3 C  d  2            279      5.867762   7 H  s         
   371     -5.868025  11 H  s               310      5.085695   8 H  px        
   356      5.022480  10 H  px               96     -4.807468   3 C  s         
 
 Vector   82  Occ=0.000000D+00  E= 3.932662D-01
              MO Center= -2.9D-02,  4.6D-01,  2.0D-04, r^2= 1.5D+01
   Bfn.  Coefficient  Atom+Function         Bfn.  Coefficient  Atom+Function  
  ----- ------------  ---------------      ----- ------------  ---------------
    12     12.181429   1 C  px               51    -11.052625   2 C  s         
   235     11.054076   6 C  s                78     -9.086710   2 C  d  2      
   262      8.757785   6 C  d  2             15     -6.830286   1 C  px        
   216      6.675287   5 C  d  2            153     -5.863503   4 C  px        
   124     -5.832859   3 C  d  2            379     -5.816354  11 H  px        
 
 Vector   83  Occ=0.000000D+00  E= 3.960270D-01
              MO Center= -5.2D-02,  8.3D-01,  2.0D-04, r^2= 1.2D+01
   Bfn.  Coefficient  Atom+Function         Bfn.  Coefficient  Atom+Function  
  ----- ------------  ---------------      ----- ------------  ---------------
   152     -7.531742   4 C  pz              106      7.336779   3 C  pz        
   198      7.336937   5 C  pz               60     -6.480398   2 C  pz        
   244     -6.480467   6 C  pz              167     -6.334218   4 C  d -1      
   215      5.118394   5 C  d  1            123     -4.712130   3 C  d  1      
    14      4.573664   1 C  pz              259      4.026608   6 C  d -1      
 
 Vector   84  Occ=0.000000D+00  E= 4.017338D-01
              MO Center= -3.3D-02,  5.2D-01, -7.1D-04, r^2= 1.5D+01
   Bfn.  Coefficient  Atom+Function         Bfn.  Coefficient  Atom+Function  
  ----- ------------  ---------------      ----- ------------  ---------------
     5     51.758678   1 C  s                51    -19.785451   2 C  s         
   235    -19.782046   6 C  s                97    -17.392799   3 C  s         
   189    -17.390066   5 C  s               143     11.669944   4 C  s         
   142    -10.270659   4 C  s                 4     -9.674305   1 C  s         
    50     -7.941997   2 C  s               234     -7.942774   6 C  s         
 
 Vector   85  Occ=0.000000D+00  E= 4.053091D-01
              MO Center= -5.4D-03,  8.6D-02, -7.2D-05, r^2= 1.3D+01
   Bfn.  Coefficient  Atom+Function         Bfn.  Coefficient  Atom+Function  
  ----- ------------  ---------------      ----- ------------  ---------------
     5     33.668952   1 C  s               143     17.682668   4 C  s         
    51    -12.897637   2 C  s               235    -12.900924   6 C  s         
[...]
     Occ.   13 beta  a   ---  Virt.   21 beta  a    0.05600 X
     Occ.   15 beta  a   ---  Virt.   21 beta  a    0.10245 X
     Occ.   19 beta  a   ---  Virt.   24 beta  a    0.22096 X
     Occ.   19 beta  a   ---  Virt.   29 beta  a   -0.05002 X
     Occ.   20 beta  a   ---  Virt.   22 beta  a   -0.14465 X
  ----------------------------------------------------------------------------
  Root  27         a              0.251974148 a.u.                6.8566 eV 
  <S2> =   1.6619
  ----------------------------------------------------------------------------
     Transition Moments    X  0.00001   Y  0.00000   Z  0.24503
     Transition Moments   XX  0.00005  XY -0.00006  XZ -0.01065
     Transition Moments   YY  0.00012  YZ  0.16707  ZZ  0.00003
     Dipole Oscillator Strength                    0.0100857620
     Electric Quadrupole                           0.0000000024
     Magnetic Dipole                               0.0000000311
     Total Oscillator Strength                     0.0100857955
 
     Occ.   19 alpha a   ---  Virt.   26 alpha a    0.98232 X
     Occ.   19 alpha a   ---  Virt.   35 alpha a   -0.07113 X
     Occ.   19 alpha a   ---  Virt.   36 alpha a   -0.07364 X
     Occ.   20 alpha a   ---  Virt.   25 alpha a    0.11468 X
     Occ.   20 beta  a   ---  Virt.   26 beta  a    0.05037 X
  ----------------------------------------------------------------------------
  Root  28         a              0.252621920 a.u.                6.8742 eV 
  <S2> =   1.8895
  ----------------------------------------------------------------------------
     Transition Moments    X -0.00004   Y -0.00001   Z -0.00006
     Transition Moments   XX -0.00001  XY  0.00002  XZ -0.39295
     Transition Moments   YY -0.00007  YZ -0.02479  ZZ -0.00002
     Dipole Oscillator Strength                    0.0000000008
     Electric Quadrupole                           0.0000000133
     Magnetic Dipole                               0.0000000096
     Total Oscillator Strength                     0.0000000237
 
     Occ.   19 alpha a   ---  Virt.   25 alpha a    0.24739 X
     Occ.   20 alpha a   ---  Virt.   26 alpha a    0.96036 X
     Occ.   20 alpha a   ---  Virt.   35 alpha a   -0.06152 X
     Occ.   20 alpha a   ---  Virt.   36 alpha a   -0.06548 X
     Occ.   19 beta  a   ---  Virt.   26 beta  a   -0.06487 X
  ----------------------------------------------------------------------------
  Root  29         a              0.253987416 a.u.                6.9114 eV 
  <S2> =   1.6184
  ----------------------------------------------------------------------------
     Transition Moments    X -0.00005   Y  0.00002   Z  0.00001
     Transition Moments   XX  0.00003  XY -0.00004  XZ  0.49371
     Transition Moments   YY  0.00011  YZ  0.03112  ZZ  0.00003
     Dipole Oscillator Strength                    0.0000000005
     Electric Quadrupole                           0.0000000214
     Magnetic Dipole                               0.0000000109
     Total Oscillator Strength                     0.0000000328
 
     Occ.   20 alpha a   ---  Virt.   26 alpha a   -0.06946 X
     Occ.   19 beta  a   ---  Virt.   26 beta  a   -0.98516 X
     Occ.   19 beta  a   ---  Virt.   35 beta  a    0.05784 X
     Occ.   19 beta  a   ---  Virt.   36 beta  a    0.07402 X
     Occ.   20 beta  a   ---  Virt.   25 beta  a   -0.09686 X
  ----------------------------------------------------------------------------
  Root  30         a              0.254757135 a.u.                6.9323 eV 
  <S2> =   0.7707
  ----------------------------------------------------------------------------
     Transition Moments    X -1.50323   Y -0.09503   Z  0.00002
     Transition Moments   XX -0.02429  XY  0.18990  XZ -0.00003
     Transition Moments   YY  0.02355  YZ  0.00002  ZZ -0.00006
     Dipole Oscillator Strength                    0.3853159508
     Electric Quadrupole                           0.0000000032
     Magnetic Dipole                               0.0000000195
     Total Oscillator Strength                     0.3853159735
 
     Occ.   19 alpha a   ---  Virt.   22 alpha a   -0.38007 X
     Occ.   19 alpha a   ---  Virt.   22 alpha a    0.05311 Y
     Occ.   20 alpha a   ---  Virt.   23 alpha a    0.42681 X
     Occ.   20 alpha a   ---  Virt.   23 alpha a   -0.05109 Y
     Occ.   20 alpha a   ---  Virt.   29 alpha a   -0.14083 X
     Occ.   21 alpha a   ---  Virt.   25 alpha a    0.07644 X
     Occ.   21 alpha a   ---  Virt.   27 alpha a   -0.38976 X
     Occ.   13 beta  a   ---  Virt.   21 beta  a    0.12799 X
     Occ.   15 beta  a   ---  Virt.   21 beta  a    0.27044 X
     Occ.   19 beta  a   ---  Virt.   24 beta  a    0.49858 X
     Occ.   19 beta  a   ---  Virt.   29 beta  a   -0.13914 X
     Occ.   20 beta  a   ---  Virt.   22 beta  a   -0.34836 X
     Occ.   20 beta  a   ---  Virt.   22 beta  a    0.05611 Y
  ----------------------------------------------------------------------------
  Root  31         a              0.255406381 a.u.                6.9500 eV 
  <S2> =   0.8012
  ----------------------------------------------------------------------------
     Transition Moments    X  0.04058   Y -0.63636   Z -0.00000
     Transition Moments   XX -0.65026  XY  0.07812  XZ  0.00002
     Transition Moments   YY -1.88578  YZ -0.00003  ZZ -0.14659
     Dipole Oscillator Strength                    0.0692325834
     Electric Quadrupole                           0.0000000716
     Magnetic Dipole                               0.0000000000
     Total Oscillator Strength                     0.0692326550
 
     Occ.   19 alpha a   ---  Virt.   23 alpha a    0.10550 X
     Occ.   20 alpha a   ---  Virt.   22 alpha a    0.11463 X
     Occ.   21 alpha a   ---  Virt.   26 alpha a    0.18453 X
     Occ.   21 alpha a   ---  Virt.   28 alpha a   -0.90985 X
     Occ.   21 alpha a   ---  Virt.   30 alpha a   -0.12847 X
     Occ.   21 alpha a   ---  Virt.   31 alpha a   -0.16280 X
     Occ.   21 alpha a   ---  Virt.   48 alpha a    0.05657 X
     Occ.   16 beta  a   ---  Virt.   21 beta  a    0.18860 X
     Occ.   19 beta  a   ---  Virt.   22 beta  a    0.10933 X
     Occ.   20 beta  a   ---  Virt.   24 beta  a    0.09638 X
  ----------------------------------------------------------------------------
  Root  32         a              0.260753352 a.u.                7.0955 eV 
  <S2> =   0.8001
  ----------------------------------------------------------------------------
     Transition Moments    X  0.00001   Y -0.00001   Z  0.09559
     Transition Moments   XX -0.00001  XY -0.00001  XZ -0.04441
     Transition Moments   YY -0.00003  YZ  0.70496  ZZ  0.00000
     Dipole Oscillator Strength                    0.0015885565
     Electric Quadrupole                           0.0000000471
     Magnetic Dipole                               0.0000000330
     Total Oscillator Strength                     0.0015886366
 
     Occ.   21 alpha a   ---  Virt.   29 alpha a   -0.97947 X
     Occ.   21 alpha a   ---  Virt.   33 alpha a   -0.17996 X
  ----------------------------------------------------------------------------
  Root  33         a              0.265400683 a.u.                7.2219 eV 
  <S2> =   1.7807
  ----------------------------------------------------------------------------
     Transition Moments    X -0.00001   Y -0.00001   Z -0.00000
     Transition Moments   XX  0.00006  XY -0.00002  XZ -0.54581
     Transition Moments   YY  0.00003  YZ -0.03439  ZZ  0.00004
     Dipole Oscillator Strength                    0.0000000000
     Electric Quadrupole                           0.0000000298
     Magnetic Dipole                               0.0000000006
     Total Oscillator Strength                     0.0000000304
 
     Occ.   20 beta  a   ---  Virt.   27 beta  a   -0.99103 X
     Occ.   20 beta  a   ---  Virt.   38 beta  a    0.09649 X
  ----------------------------------------------------------------------------
  Root  34         a              0.267190144 a.u.                7.2706 eV 
  <S2> =   0.8216
  ----------------------------------------------------------------------------
     Transition Moments    X  0.07577   Y -1.20077   Z  0.00000
     Transition Moments   XX  0.01892  XY -0.04279  XZ  0.00001
     Transition Moments   YY  0.69501  YZ  0.00006  ZZ  0.04603
     Dipole Oscillator Strength                    0.2578553186
     Electric Quadrupole                           0.0000000151
     Magnetic Dipole                               0.0000000000
     Total Oscillator Strength                     0.2578553337
 
     Occ.   17 alpha a   ---  Virt.   23 alpha a   -0.08607 X
     Occ.   19 alpha a   ---  Virt.   23 alpha a    0.30514 X
     Occ.   19 alpha a   ---  Virt.   29 alpha a    0.16160 X
     Occ.   20 alpha a   ---  Virt.   22 alpha a    0.22284 X
     Occ.   21 alpha a   ---  Virt.   28 alpha a    0.30120 X
     Occ.   21 alpha a   ---  Virt.   30 alpha a   -0.42766 X
     Occ.   21 alpha a   ---  Virt.   31 alpha a    0.08028 X
     Occ.   14 beta  a   ---  Virt.   21 beta  a   -0.08799 X
     Occ.   16 beta  a   ---  Virt.   21 beta  a    0.50156 X
     Occ.   19 beta  a   ---  Virt.   22 beta  a    0.22350 X
     Occ.   20 beta  a   ---  Virt.   24 beta  a    0.30740 X
     Occ.   20 beta  a   ---  Virt.   29 beta  a    0.34428 X
  ----------------------------------------------------------------------------
  Root  35         a              0.270809655 a.u.                7.3691 eV 
  <S2> =   2.7050
  ----------------------------------------------------------------------------
     Transition Moments    X -0.00000   Y -0.00001   Z -0.00954
     Transition Moments   XX  0.00001  XY -0.00001  XZ  0.00957
     Transition Moments   YY  0.00002  YZ -0.15125  ZZ -0.00000
     Dipole Oscillator Strength                    0.0000164246
     Electric Quadrupole                           0.0000000024
     Magnetic Dipole                               0.0000000000
     Total Oscillator Strength                     0.0000164270
 
     Occ.   20 alpha a   ---  Virt.   27 alpha a    0.79662 X
     Occ.   20 alpha a   ---  Virt.   38 alpha a   -0.08792 X
     Occ.   19 beta  a   ---  Virt.   27 beta  a   -0.57744 X
     Occ.   19 beta  a   ---  Virt.   38 beta  a    0.06827 X
     Occ.   20 beta  a   ---  Virt.   28 beta  a   -0.05379 X
     Occ.   20 beta  a   ---  Virt.   30 beta  a   -0.06119 X
  ----------------------------------------------------------------------------
  Root  36         a              0.271253358 a.u.                7.3812 eV 
  <S2> =   2.7408
  ----------------------------------------------------------------------------
     Transition Moments    X  0.04869   Y  0.00303   Z -0.00000
     Transition Moments   XX  0.00376  XY -0.02852  XZ  0.00001
     Transition Moments   YY -0.00373  YZ -0.00004  ZZ  0.00004
     Dipole Oscillator Strength                    0.0004304098
     Electric Quadrupole                           0.0000000001
     Magnetic Dipole                               0.0000000018
     Total Oscillator Strength                     0.0004304117
 
     Occ.   17 alpha a   ---  Virt.   22 alpha a    0.59783 X
     Occ.   17 alpha a   ---  Virt.   41 alpha a   -0.05240 X
     Occ.   19 alpha a   ---  Virt.   32 alpha a   -0.08385 X
     Occ.   20 alpha a   ---  Virt.   29 alpha a    0.16432 X
     Occ.   20 alpha a   ---  Virt.   44 alpha a   -0.22729 X
     Occ.   20 alpha a   ---  Virt.   47 alpha a    0.17407 X
     Occ.   17 beta  a   ---  Virt.   22 beta  a   -0.64458 X
     Occ.   17 beta  a   ---  Virt.   41 beta  a    0.05433 X
     Occ.   19 beta  a   ---  Virt.   29 beta  a   -0.10210 X
     Occ.   19 beta  a   ---  Virt.   44 beta  a    0.20063 X
     Occ.   19 beta  a   ---  Virt.   47 beta  a   -0.16662 X
     Occ.   20 beta  a   ---  Virt.   31 beta  a    0.10177 X
  ----------------------------------------------------------------------------
  Root  37         a              0.271756342 a.u.                7.3949 eV 
  <S2> =   1.0520
  ----------------------------------------------------------------------------
     Transition Moments    X  0.03230   Y -0.51225   Z  0.00000
     Transition Moments   XX  1.05199  XY  0.11434  XZ -0.00000
     Transition Moments   YY -0.75538  YZ -0.00004  ZZ  0.23975
     Dipole Oscillator Strength                    0.0477282502
     Electric Quadrupole                           0.0000000890
     Magnetic Dipole                               0.0000000000
     Total Oscillator Strength                     0.0477283392
 
     Occ.   17 alpha a   ---  Virt.   23 alpha a   -0.06249 X
     Occ.   19 alpha a   ---  Virt.   23 alpha a    0.09110 X
     Occ.   21 alpha a   ---  Virt.   30 alpha a    0.79733 X
     Occ.   21 alpha a   ---  Virt.   31 alpha a   -0.20550 X
     Occ.   21 alpha a   ---  Virt.   35 alpha a    0.07436 X
     Occ.   21 alpha a   ---  Virt.   40 alpha a   -0.05669 X
     Occ.   14 beta  a   ---  Virt.   21 beta  a   -0.06321 X
     Occ.   16 beta  a   ---  Virt.   21 beta  a    0.18850 X
     Occ.   19 beta  a   ---  Virt.   22 beta  a    0.05845 X
     Occ.   20 beta  a   ---  Virt.   24 beta  a    0.09587 X
     Occ.   20 beta  a   ---  Virt.   29 beta  a    0.48486 X
  ----------------------------------------------------------------------------
  Root  38         a              0.271808035 a.u.                7.3963 eV 
  <S2> =   0.8291
  ----------------------------------------------------------------------------
     Transition Moments    X  0.00001   Y -0.00007   Z  0.02489
     Transition Moments   XX  0.00014  XY  0.00007  XZ -0.05510
     Transition Moments   YY -0.00017  YZ  0.87274  ZZ  0.00005
     Dipole Oscillator Strength                    0.0001122875
     Electric Quadrupole                           0.0000000818
     Magnetic Dipole                               0.0000000038
     Total Oscillator Strength                     0.0001123731
 
     Occ.   20 alpha a   ---  Virt.   27 alpha a   -0.57422 X
     Occ.   19 beta  a   ---  Virt.   27 beta  a   -0.80018 X
     Occ.   19 beta  a   ---  Virt.   38 beta  a    0.07506 X
     Occ.   20 beta  a   ---  Virt.   28 beta  a    0.12832 X
  ----------------------------------------------------------------------------
  Root  39         a              0.272286609 a.u.                7.4093 eV 
  <S2> =   1.7261
  ----------------------------------------------------------------------------
     Transition Moments    X  0.00001   Y -0.00000   Z  0.00002
     Transition Moments   XX -0.00006  XY  0.00002  XZ  0.54902
     Transition Moments   YY -0.00001  YZ  0.03488  ZZ -0.00003
     Dipole Oscillator Strength                    0.0000000001
     Electric Quadrupole                           0.0000000325
     Magnetic Dipole                               0.0000000013
     Total Oscillator Strength                     0.0000000339
 
     Occ.   19 alpha a   ---  Virt.   27 alpha a    0.99033 X
     Occ.   19 alpha a   ---  Virt.   38 alpha a   -0.09593 X
  ----------------------------------------------------------------------------
  Root  40         a              0.272509521 a.u.                7.4154 eV 
  <S2> =   1.9618
  ----------------------------------------------------------------------------
     Transition Moments    X  0.00001   Y -0.00004   Z -0.04148
     Transition Moments   XX -0.00002  XY -0.00003  XZ  0.02784
     Transition Moments   YY -0.00005  YZ -0.44011  ZZ -0.00001
     Dipole Oscillator Strength                    0.0003125151
     Electric Quadrupole                           0.0000000210
     Magnetic Dipole                               0.0000000053
     Total Oscillator Strength                     0.0003125413
 
     Occ.   19 alpha a   ---  Virt.   28 alpha a    0.11707 X
     Occ.   20 alpha a   ---  Virt.   27 alpha a   -0.12663 X
     Occ.   17 beta  a   ---  Virt.   21 beta  a    0.05506 X
     Occ.   19 beta  a   ---  Virt.   27 beta  a   -0.06762 X
     Occ.   20 beta  a   ---  Virt.   28 beta  a   -0.96952 X
     Occ.   20 beta  a   ---  Virt.   30 beta  a   -0.05585 X
     Occ.   20 beta  a   ---  Virt.   32 beta  a   -0.07460 X
     Occ.   20 beta  a   ---  Virt.   43 beta  a   -0.08099 X
 
              Target root =      1
          Target symmetry = none
      Ground state energy =   -231.646327403832
        Excitation energy =      0.106293783838
     Excited state energy =   -231.540033619994
 
  stored tddft:energy   -231.540033619994     

 Task  times  cpu:     7422.8s     wall:     7503.2s
 
 
                                NWChem Input Module
                                -------------------
 
 
 Summary of allocated global arrays
-----------------------------------
  No active global arrays



                         GA Statistics for process    0
                         ------------------------------

       create   destroy   get      put      acc     scatter   gather  read&inc
calls: 9775     9775     8.19e+06 3.55e+06 1.44e+06 5660        0      326     
number of processes/call 1.36e+00 1.45e+00 3.13e+00 0.00e+00 0.00e+00
bytes total:             4.98e+10 6.00e+09 5.41e+10 3.13e+04 0.00e+00 2.61e+03
bytes remote:            3.81e+10 7.50e+08 5.28e+10 0.00e+00 0.00e+00 0.00e+00
Max memory consumed for GA by this process: 182465152 bytes
 
MA_summarize_allocated_blocks: starting scan ...
MA_summarize_allocated_blocks: scan completed: 0 heap blocks, 0 stack blocks
MA usage statistics:

	allocation statistics:
					      heap	     stack
					      ----	     -----
	current number of blocks	         0	         0
	maximum number of blocks	        20	        52
	current total bytes		         0	         0
	maximum total bytes		    969392	  68276392
	maximum total K-bytes		       970	     68277
	maximum total M-bytes		         1	        69
 
 
                                     CITATION
                                     --------
                Please cite the following reference when publishing
                           results obtained with NWChem:
 
                 M. Valiev, E.J. Bylaska, N. Govind, K. Kowalski,
              T.P. Straatsma, H.J.J. van Dam, D. Wang, J. Nieplocha,
                        E. Apra, T.L. Windus, W.A. de Jong
                 "NWChem: a comprehensive and scalable open-source
                  solution for large scale molecular simulations"
                      Comput. Phys. Commun. 181, 1477 (2010)
                           doi:10.1016/j.cpc.2010.04.018
 
                                      AUTHORS
                                      -------
          E. Apra, E. J. Bylaska, W. A. de Jong, N. Govind, K. Kowalski,
       T. P. Straatsma, M. Valiev, H. J. J. van Dam, D. Wang, T. L. Windus,
        J. Hammond, J. Autschbach, K. Bhaskaran-Nair, J. Brabec, K. Lopata,
    S. A. Fischer, S. Krishnamoorthy, M. Jacquelin, W. Ma, M. Klemm, O. Villa,
      Y. Chen, V. Anisimov, F. Aquino, S. Hirata, M. T. Hackler, V. Konjkov,
            D. Mejia-Rodriguez, T. Risthaus, M. Malagoli, A. Marenich,
   A. Otero-de-la-Roza, J. Mullin, P. Nichols, R. Peverati, J. Pittner, Y. Zhao,
        P.-D. Fan, A. Fonari, M. J. Williamson, R. J. Harrison, J. R. Rehr,
      M. Dupuis, D. Silverstein, D. M. A. Smith, J. Nieplocha, V. Tipparaju,
    M. Krishnan, B. E. Van Kuiken, A. Vazquez-Mayagoitia, L. Jensen, M. Swart,
      Q. Wu, T. Van Voorhis, A. A. Auer, M. Nooijen, L. D. Crosby, E. Brown,
      G. Cisneros, G. I. Fann, H. Fruchtl, J. Garza, K. Hirao, R. A. Kendall,
      J. A. Nichols, K. Tsemekhman, K. Wolinski, J. Anchell, D. E. Bernholdt,
      P. Borowski, T. Clark, D. Clerc, H. Dachsel, M. J. O. Deegan, K. Dyall,
    D. Elwood, E. Glendening, M. Gutowski, A. C. Hess, J. Jaffe, B. G. Johnson,
     J. Ju, R. Kobayashi, R. Kutteh, Z. Lin, R. Littlefield, X. Long, B. Meng,
      T. Nakajima, S. Niu, L. Pollack, M. Rosing, K. Glaesemann, G. Sandrone,
      M. Stave, H. Taylor, G. Thomas, J. H. van Lenthe, A. T. Wong, Z. Zhang.

 Total times  cpu:     7423.5s     wall:     7507.5s
