 argument  1 = /storage/home/j/jbb5516/phenylFreq.nw
 


============================== echo of input deck ==============================
echo
start

geometry
C    -0.08714006     1.38304372     0.00000008
C    -1.26702264     0.68586055     0.00000001
C    -1.16700412    -0.70996889     0.00000001
C     0.08324816    -1.32124953     0.00000007
C     1.24688828    -0.55787799     0.00000002
C     1.17091838     0.83946690     0.00000008
H    -2.23155837     1.17564063    -0.00000007
H    -2.06715194    -1.31129762    -0.00000006
H     0.15125622    -2.40063469     0.00000003
H     2.21539348    -1.04146876    -0.00000010
H     2.06635187     1.44643689    -0.00000007
symmetry c1
end

basis spherical
 * library "aug-cc-pvtz"
end

dft
 direct
 mult 2
 iterations 500
 xc b3lyp
end
task dft frequencies
================================================================================


                                         
                                         
 
 
              Northwest Computational Chemistry Package (NWChem) 6.8
              ------------------------------------------------------
 
 
                    Environmental Molecular Sciences Laboratory
                       Pacific Northwest National Laboratory
                                Richland, WA 99352
 
                              Copyright (c) 1994-2017
                       Pacific Northwest National Laboratory
                            Battelle Memorial Institute
 
             NWChem is an open-source computational chemistry package
                        distributed under the terms of the
                      Educational Community License (ECL) 2.0
             A copy of the license is included with this distribution
                              in the LICENSE.TXT file
 
                                  ACKNOWLEDGMENT
                                  --------------

            This software and its documentation were developed at the
            EMSL at Pacific Northwest National Laboratory, a multiprogram
            national laboratory, operated for the U.S. Department of Energy
            by Battelle under Contract Number DE-AC05-76RL01830. Support
            for this work was provided by the Department of Energy Office
            of Biological and Environmental Research, Office of Basic
            Energy Sciences, and the Office of Advanced Scientific Computing.


           Job information
           ---------------

    hostname        = comp-sc-0147.acib.production.int.aci.ics.psu.edu
    program         = /gpfs/group/lxj18/default/jeffprograms/nwchem-6.8.1/bin/LINUX64/nwchem
    date            = Sun Sep 20 00:46:49 2020

    compiled        = Wed_Oct_03_14:08:39_2018
    source          = /gpfs/group/lxj18/default/jeffprograms/nwchem-6.8.1
    nwchem branch   = 6.8.1
    nwchem revision = v6.8-143-gdb0d964
    ga revision     = 5.6.5
    use scalapack   = F
    input           = /storage/home/j/jbb5516/phenylFreq.nw
    prefix          = phenylFreq.
    data base       = ./phenylFreq.db
    status          = startup
    nproc           =       20
    time left       =     -1s



           Memory information
           ------------------

    heap     =   13107194 doubles =    100.0 Mbytes
    stack    =   13107199 doubles =    100.0 Mbytes
    global   =   26214400 doubles =    200.0 Mbytes (distinct from heap & stack)
    total    =   52428793 doubles =    400.0 Mbytes
    verify   = yes
    hardfail = no 


           Directory information
           ---------------------
 
  0 permanent = .
  0 scratch   = .
 
 
 
 
                                NWChem Input Module
                                -------------------
 
 

 Scaling coordinates for geometry "geometry" by  1.889725989
 (inverse scale =  0.529177249)

 Turning off AUTOSYM since
 SYMMETRY directive was detected!
 

          ------
          auto-z
          ------
 
 
                             Geometry "geometry" -> ""
                             -------------------------
 
 Output coordinates in angstroms (scale by  1.889725989 to convert to a.u.)
 
  No.       Tag          Charge          X              Y              Z
 ---- ---------------- ---------- -------------- -------------- --------------
    1 C                    6.0000    -0.08747224     1.38830409     0.00000005
    2 C                    6.0000    -1.26735482     0.69112092    -0.00000002
    3 C                    6.0000    -1.16733630    -0.70470852    -0.00000002
    4 C                    6.0000     0.08291598    -1.31598916     0.00000004
    5 C                    6.0000     1.24655610    -0.55261762    -0.00000001
    6 C                    6.0000     1.17058620     0.84472727     0.00000005
    7 H                    1.0000    -2.23189055     1.18090100    -0.00000010
    8 H                    1.0000    -2.06748412    -1.30603725    -0.00000009
    9 H                    1.0000     0.15092404    -2.39537432    -0.00000000
   10 H                    1.0000     2.21506130    -1.03620839    -0.00000013
   11 H                    1.0000     2.06601969     1.45169726    -0.00000010
 
      Atomic Mass 
      ----------- 
 
      C                 12.000000
      H                  1.007825
 

 Effective nuclear repulsion energy (a.u.)     195.0640129284

            Nuclear Dipole moment (a.u.) 
            ----------------------------
        X                 Y               Z
 ---------------- ---------------- ----------------
    -0.0000000000     0.0000000000    -0.0000000000
 


                                Z-matrix (autoz)
                                -------- 

 Units are Angstrom for bonds and degrees for angles
 
      Type          Name      I     J     K     L     M      Value
      ----------- --------  ----- ----- ----- ----- ----- ----------
    1 Stretch                  1     2                       1.37047
    2 Stretch                  1     6                       1.37047
    3 Stretch                  2     3                       1.39941
    4 Stretch                  2     7                       1.08176
    5 Stretch                  3     4                       1.39169
    6 Stretch                  3     8                       1.08253
    7 Stretch                  4     5                       1.39169
    8 Stretch                  4     9                       1.08153
    9 Stretch                  5     6                       1.39941
   10 Stretch                  5    10                       1.08253
   11 Stretch                  6    11                       1.08176
   12 Bend                     1     2     3               116.47996
   13 Bend                     1     2     7               122.50057
   14 Bend                     1     6     5               116.47997
   15 Bend                     1     6    11               122.50059
   16 Bend                     2     1     6               126.05349
   17 Bend                     2     3     4               120.15374
   18 Bend                     2     3     8               119.64570
   19 Bend                     3     2     7               121.01947
   20 Bend                     3     4     5               120.67911
   21 Bend                     3     4     9               119.66043
   22 Bend                     4     3     8               120.20055
   23 Bend                     4     5     6               120.15373
   24 Bend                     4     5    10               120.20059
   25 Bend                     5     4     9               119.66046
   26 Bend                     5     6    11               121.01945
   27 Bend                     6     5    10               119.64567
   28 Torsion                  1     2     3     4           0.00000
   29 Torsion                  1     2     3     8        -180.00000
   30 Torsion                  1     6     5     4           0.00000
   31 Torsion                  1     6     5    10         180.00000
   32 Torsion                  2     1     6     5           0.00000
   33 Torsion                  2     1     6    11         180.00000
   34 Torsion                  2     3     4     5           0.00000
   35 Torsion                  2     3     4     9        -180.00000
   36 Torsion                  3     2     1     6           0.00000
   37 Torsion                  3     4     5     6           0.00000
   38 Torsion                  3     4     5    10        -180.00000
   39 Torsion                  4     3     2     7         180.00000
   40 Torsion                  4     5     6    11        -180.00000
   41 Torsion                  5     4     3     8         180.00000
   42 Torsion                  6     1     2     7        -180.00000
   43 Torsion                  6     5     4     9        -180.00000
   44 Torsion                  7     2     3     8           0.00000
   45 Torsion                  8     3     4     9           0.00000
   46 Torsion                  9     4     5    10           0.00000
   47 Torsion                 10     5     6    11           0.00000
 
 
            XYZ format geometry
            -------------------
    11
 geometry
 C                    -0.08747224     1.38830409     0.00000005
 C                    -1.26735482     0.69112092    -0.00000002
 C                    -1.16733630    -0.70470852    -0.00000002
 C                     0.08291598    -1.31598916     0.00000004
 C                     1.24655610    -0.55261762    -0.00000001
 C                     1.17058620     0.84472727     0.00000005
 H                    -2.23189055     1.18090100    -0.00000010
 H                    -2.06748412    -1.30603725    -0.00000009
 H                     0.15092404    -2.39537432    -0.00000000
 H                     2.21506130    -1.03620839    -0.00000013
 H                     2.06601969     1.45169726    -0.00000010
 
 ==============================================================================
                                internuclear distances
 ------------------------------------------------------------------------------
       center one      |      center two      | atomic units |  angstroms
 ------------------------------------------------------------------------------
    2 C                |   1 C                |     2.58981  |     1.37047
    3 C                |   2 C                |     2.64450  |     1.39941
    4 C                |   3 C                |     2.62991  |     1.39169
    5 C                |   4 C                |     2.62991  |     1.39169
    6 C                |   1 C                |     2.58981  |     1.37047
    6 C                |   5 C                |     2.64450  |     1.39941
    7 H                |   2 C                |     2.04424  |     1.08176
    8 H                |   3 C                |     2.04568  |     1.08253
    9 H                |   4 C                |     2.04379  |     1.08153
   10 H                |   5 C                |     2.04568  |     1.08253
   11 H                |   6 C                |     2.04424  |     1.08176
 ------------------------------------------------------------------------------
                         number of included internuclear distances:         11
 ==============================================================================



 ==============================================================================
                                 internuclear angles
 ------------------------------------------------------------------------------
        center 1       |       center 2       |       center 3       |  degrees
 ------------------------------------------------------------------------------
    2 C                |   1 C                |   6 C                |   126.05
    1 C                |   2 C                |   3 C                |   116.48
    1 C                |   2 C                |   7 H                |   122.50
    3 C                |   2 C                |   7 H                |   121.02
    2 C                |   3 C                |   4 C                |   120.15
    2 C                |   3 C                |   8 H                |   119.65
    4 C                |   3 C                |   8 H                |   120.20
    3 C                |   4 C                |   5 C                |   120.68
    3 C                |   4 C                |   9 H                |   119.66
    5 C                |   4 C                |   9 H                |   119.66
    4 C                |   5 C                |   6 C                |   120.15
    4 C                |   5 C                |  10 H                |   120.20
    6 C                |   5 C                |  10 H                |   119.65
    1 C                |   6 C                |   5 C                |   116.48
    1 C                |   6 C                |  11 H                |   122.50
    5 C                |   6 C                |  11 H                |   121.02
 ------------------------------------------------------------------------------
                            number of included internuclear angles:         16
 ==============================================================================





 Summary of "ao basis" -> "" (spherical)
 ------------------------------------------------------------------------------
       Tag                 Description            Shells   Functions and Types
 ---------------- ------------------------------  ------  ---------------------
 *                        aug-cc-pvtz                 on all atoms 


 
 
                   NWChem Nuclear Hessian and Frequency Analysis
                   ---------------------------------------------
 
 
 
                              NWChem Analytic Hessian
                              -----------------------
 
 restr:                      0
 
                                 NWChem DFT Module
                                 -----------------
 
 
                      Basis "ao basis" -> "ao basis" (spherical)
                      -----
  C (Carbon)
  ----------
            Exponent  Coefficients 
       -------------- ---------------------------------------------------------
  1 S  8.23600000E+03  0.000531
  1 S  1.23500000E+03  0.004108
  1 S  2.80800000E+02  0.021087
  1 S  7.92700000E+01  0.081853
  1 S  2.55900000E+01  0.234817
  1 S  8.99700000E+00  0.434401
  1 S  3.31900000E+00  0.346129
  1 S  3.64300000E-01 -0.008983
 
  2 S  8.23600000E+03 -0.000113
  2 S  1.23500000E+03 -0.000878
  2 S  2.80800000E+02 -0.004540
  2 S  7.92700000E+01 -0.018133
  2 S  2.55900000E+01 -0.055760
  2 S  8.99700000E+00 -0.126895
  2 S  3.31900000E+00 -0.170352
  2 S  3.64300000E-01  0.598684
 
  3 S  9.05900000E-01  1.000000
 
  4 S  1.28500000E-01  1.000000
 
  5 S  4.40200000E-02  1.000000
 
  6 P  1.87100000E+01  0.014031
  6 P  4.13300000E+00  0.086866
  6 P  1.20000000E+00  0.290216
 
  7 P  3.82700000E-01  1.000000
 
  8 P  1.20900000E-01  1.000000
 
  9 P  3.56900000E-02  1.000000
 
 10 D  1.09700000E+00  1.000000
 
 11 D  3.18000000E-01  1.000000
 
 12 D  1.00000000E-01  1.000000
 
 13 F  7.61000000E-01  1.000000
 
 14 F  2.68000000E-01  1.000000
 
  H (Hydrogen)
  ------------
            Exponent  Coefficients 
       -------------- ---------------------------------------------------------
  1 S  3.38700000E+01  0.006068
  1 S  5.09500000E+00  0.045308
  1 S  1.15900000E+00  0.202822
 
  2 S  3.25800000E-01  1.000000
 
  3 S  1.02700000E-01  1.000000
 
  4 S  2.52600000E-02  1.000000
 
  5 P  1.40700000E+00  1.000000
 
  6 P  3.88000000E-01  1.000000
 
  7 P  1.02000000E-01  1.000000
 
  8 D  1.05700000E+00  1.000000
 
  9 D  2.47000000E-01  1.000000
 


 Summary of "ao basis" -> "ao basis" (spherical)
 ------------------------------------------------------------------------------
       Tag                 Description            Shells   Functions and Types
 ---------------- ------------------------------  ------  ---------------------
 C                        aug-cc-pvtz               14       46   5s4p3d2f
 H                        aug-cc-pvtz                9       23   4s3p2d




 Summary of "ao basis" -> "ao basis" (spherical)
 ------------------------------------------------------------------------------
       Tag                 Description            Shells   Functions and Types
 ---------------- ------------------------------  ------  ---------------------
 C                        aug-cc-pvtz               14       46   5s4p3d2f
 H                        aug-cc-pvtz                9       23   4s3p2d


  Caching 1-el integrals 
 
            General Information
            -------------------
          SCF calculation type: DFT
          Wavefunction type:  spin polarized.
          No. of atoms     :    11
          No. of electrons :    41
           Alpha electrons :    21
            Beta electrons :    20
          Charge           :     0
          Spin multiplicity:     2
          Use of symmetry is: off; symmetry adaption is: off
          Maximum number of iterations: 500
          This is a Direct SCF calculation.
          AO basis - number of functions:   391
                     number of shells:   129
          Convergence on energy requested:  1.00D-07
          Convergence on density requested:  1.00D-05
          Convergence on gradient requested:  1.00D-06
 
              XC Information
              --------------
                         B3LYP Method XC Potential
                     Hartree-Fock (Exact) Exchange  0.200          
                        Slater Exchange Functional  0.800 local    
                    Becke 1988 Exchange Functional  0.720 non-local
              Lee-Yang-Parr Correlation Functional  0.810          
                  VWN I RPA Correlation Functional  0.190 local    
 
             Grid Information
             ----------------
          Grid used for XC integration:  fine      
          Radial quadrature: Mura-Knowles        
          Angular quadrature: Lebedev. 
          Tag              B.-S. Rad. Rad. Pts. Rad. Cut. Ang. Pts.
          ---              ---------- --------- --------- ---------
          C                   0.70       70          20.0       590
          H                   0.35       60          22.0       590
          Grid pruning is: on 
          Number of quadrature shells:   720
          Spatial weights used:  Erf1
 
          Convergence Information
          -----------------------
          Convergence aids based upon iterative change in 
          total energy or number of iterations. 
          Levelshifting, if invoked, occurs when the 
          HOMO/LUMO gap drops below (HL_TOL):  1.00D-02
          DIIS, if invoked, will attempt to extrapolate 
          using up to (NFOCK): 10 stored Fock matrices.

                    Damping( 0%)  Levelshifting(0.5)       DIIS
                  --------------- ------------------- ---------------
          dE  on:    start            ASAP                start   
          dE off:    2 iters        500 iters           500 iters 

 
      Screening Tolerance Information
      -------------------------------
          Density screening/tol_rho:  1.00D-11
          AO Gaussian exp screening on grid/accAOfunc:  16
          CD Gaussian exp screening on grid/accCDfunc:  20
          XC Gaussian exp screening on grid/accXCfunc:  20
          Schwarz screening/accCoul:  1.00D-12

 
 WARNING : Found     7 linear dependencies 
 S eigenvalue threshold:     1.00000E-05
 Smallest S eigenvalue :     1.46340E-06
 Largest  S eigenvalue :     7.76552E-06
 

 !! The overlap matrix has   7 vectors deemed linearly dependent with
    eigenvalues:
 1.46D-06 2.24D-06 2.83D-06 3.54D-06 5.27D-06 5.95D-06 7.77D-06
 
 
      Superposition of Atomic Density Guess
      -------------------------------------
 
 Sum of atomic energies:        -228.52307259
 
      Non-variational initial energy
      ------------------------------

 Total energy =    -232.667211
 1-e energy   =    -691.328534
 2-e energy   =     263.597310
 HOMO         =      -0.183326
 LUMO         =      -0.022268
 
   Time after variat. SCF:     10.4
   Time prior to 1st pass:     10.4

 Grid_pts file          = ./phenylFreq.gridpts.00
 Record size in doubles =  12289        No. of grid_pts per rec  =   3070
 Max. records in memory =      9        Max. recs in file   = 222389910

 Grid integrated density:      40.999794889760
 Requested integration accuracy:   0.10E-13

           Memory utilization after 1st SCF pass: 
           Heap Space remaining (MW):       12.92            12923970
          Stack Space remaining (MW):       13.10            13103684

   convergence    iter        energy       DeltaE   RMS-Dens  Diis-err    time
 ---------------- ----- ----------------- --------- --------- ---------  ------
 d= 0,ls=0.0,diis     1   -231.5815999305 -4.27D+02  6.18D-02  2.09D-01    21.7
                                                     6.99D-02  1.96D-01
 Grid integrated density:      41.000007477881
 Requested integration accuracy:   0.10E-13
 d= 0,ls=0.0,diis     2   -231.6398393949 -5.82D-02  6.09D-02  1.22D-02    32.9
                                                     6.87D-02  1.25D-02
 Grid integrated density:      41.000008084058
 Requested integration accuracy:   0.10E-13
 d= 0,ls=0.0,diis     3   -231.6446176993 -4.78D-03  1.28D-03  3.44D-03    44.1
                                                     1.38D-03  3.50D-03
 Grid integrated density:      41.000008221435
 Requested integration accuracy:   0.10E-13
 d= 0,ls=0.0,diis     4   -231.6457741552 -1.16D-03  2.04D-04  1.12D-03    57.1
                                                     2.08D-04  1.06D-03
 Grid integrated density:      41.000008166807
 Requested integration accuracy:   0.10E-13
 d= 0,ls=0.0,diis     5   -231.6462923722 -5.18D-04  3.41D-05  4.24D-05    70.0
                                                     3.11D-05  4.84D-05
 Grid integrated density:      41.000008174075
 Requested integration accuracy:   0.10E-13
  Resetting Diis
 d= 0,ls=0.0,diis     6   -231.6463202464 -2.79D-05  1.11D-05  7.81D-06    83.0
                                                     1.06D-05  6.31D-06
 Grid integrated density:      41.000008179215
 Requested integration accuracy:   0.10E-13
 d= 0,ls=0.0,diis     7   -231.6463264403 -6.19D-06  7.30D-06  2.13D-06    95.9
                                                     6.52D-06  2.39D-06
 Grid integrated density:      41.000008175941
 Requested integration accuracy:   0.10E-13
 d= 0,ls=0.0,diis     8   -231.6463275154 -1.08D-06  3.05D-06  5.48D-06   108.8
                                                     2.70D-06  4.83D-06
 Grid integrated density:      41.000008177389
 Requested integration accuracy:   0.10E-13
 d= 0,ls=0.0,diis     9   -231.6463308049 -3.29D-06  3.74D-06  3.84D-07   121.8
                                                     3.31D-06  3.27D-07
 Grid integrated density:      41.000008178822
 Requested integration accuracy:   0.10E-13
 d= 0,ls=0.0,diis    10   -231.6463321086 -1.30D-06  2.14D-06  1.89D-07   134.7
                                                     2.45D-06  2.89D-07
 Grid integrated density:      41.000008178148
 Requested integration accuracy:   0.10E-13
 d= 0,ls=0.0,diis    11   -231.6463325431 -4.35D-07  5.94D-07  1.19D-08   147.7
                                                     5.14D-07  9.03D-09
 Grid integrated density:      41.000008177941
 Requested integration accuracy:   0.10E-13
 d= 0,ls=0.0,diis    12   -231.6463325685 -2.54D-08  2.36D-07  3.94D-09   160.6
                                                     2.64D-07  4.53D-09


         Total DFT energy =     -231.646332568508
      One electron energy =     -696.561150442004
           Coulomb energy =      304.260031392438
    Exchange-Corr. energy =      -34.409226447345
 Nuclear repulsion energy =      195.064012928403

 Numeric. integr. density =       41.000008177941

     Total iterative time =    150.2s


 
                    DFT Final Alpha Molecular Orbital Analysis
                    ------------------------------------------
 
 Vector    1  Occ=1.000000D+00  E=-1.020522D+01
              MO Center= -8.7D-02,  1.4D+00,  4.7D-08, r^2= 3.0D-02
   Bfn.  Coefficient  Atom+Function         Bfn.  Coefficient  Atom+Function  
  ----- ------------  ---------------      ----- ------------  ---------------
     1      0.984161   1 C  s                 3      0.058855   1 C  s         
    50     -0.038417   2 C  s               234     -0.038417   6 C  s         
   143      0.037882   4 C  s               279      0.037954   7 H  s         
   371      0.037956  11 H  s                51     -0.030674   2 C  s         
   235     -0.030675   6 C  s                47      0.025320   2 C  s         
 
 Vector    2  Occ=1.000000D+00  E=-1.019181D+01
              MO Center=  8.7D-01, -5.2D-01, -1.2D-08, r^2= 8.7D-01
   Bfn.  Coefficient  Atom+Function         Bfn.  Coefficient  Atom+Function  
  ----- ------------  ---------------      ----- ------------  ---------------
   185      0.886681   5 C  s                93      0.382422   3 C  s         
   231      0.182928   6 C  s               142     -0.091859   4 C  s         
    47      0.066698   2 C  s               139      0.055095   4 C  s         
   187      0.053013   5 C  s               348      0.050267  10 H  s         
   325      0.047391   9 H  s                50      0.038035   2 C  s         
 
 Vector    3  Occ=1.000000D+00  E=-1.019178D+01
              MO Center= -7.9D-01, -6.1D-01, -2.1D-08, r^2= 8.9D-01
   Bfn.  Coefficient  Atom+Function         Bfn.  Coefficient  Atom+Function  
  ----- ------------  ---------------      ----- ------------  ---------------
    93      0.884743   3 C  s               185     -0.377991   5 C  s         
    47      0.195729   2 C  s               231     -0.096218   6 C  s         
   234      0.062275   6 C  s               302      0.059603   8 H  s         
    95      0.052702   3 C  s               235      0.052542   6 C  s         
   371     -0.051542  11 H  s                50     -0.049773   2 C  s         
 
 Vector    4  Occ=1.000000D+00  E=-1.019035D+01
              MO Center=  1.1D+00,  7.8D-01,  4.2D-08, r^2= 3.6D-01
   Bfn.  Coefficient  Atom+Function         Bfn.  Coefficient  Atom+Function  
  ----- ------------  ---------------      ----- ------------  ---------------
   231      0.943232   6 C  s                47      0.204835   2 C  s         
   185     -0.196070   5 C  s               371      0.058630  11 H  s         
   233      0.055085   6 C  s               143      0.037546   4 C  s         
     4     -0.034800   1 C  s                97      0.032335   3 C  s         
   142     -0.031396   4 C  s                93     -0.030095   3 C  s         
 
 Vector    5  Occ=1.000000D+00  E=-1.019033D+01
              MO Center= -1.2D+00,  6.3D-01, -2.0D-08, r^2= 3.6D-01
   Bfn.  Coefficient  Atom+Function         Bfn.  Coefficient  Atom+Function  
  ----- ------------  ---------------      ----- ------------  ---------------
    47      0.941698   2 C  s                93     -0.201389   3 C  s         
   231     -0.197744   6 C  s               279      0.056438   7 H  s         
    49      0.054619   2 C  s               185      0.054445   5 C  s         
   189      0.045445   5 C  s               188      0.040699   5 C  s         
    97     -0.038978   3 C  s                12      0.036636   1 C  px        
 
 Vector    6  Occ=1.000000D+00  E=-1.018431D+01
              MO Center=  8.3D-02, -1.3D+00,  3.7D-08, r^2= 3.5D-02
   Bfn.  Coefficient  Atom+Function         Bfn.  Coefficient  Atom+Function  
  ----- ------------  ---------------      ----- ------------  ---------------
   139      0.984279   4 C  s               141      0.057791   4 C  s         
    96     -0.045906   3 C  s               188     -0.045904   5 C  s         
   325      0.046001   9 H  s               143     -0.043499   4 C  s         
     4      0.040389   1 C  s                93     -0.039825   3 C  s         
   185     -0.039729   5 C  s               151      0.036016   4 C  py        
 
 Vector    7  Occ=1.000000D+00  E=-8.724563D-01
              MO Center= -6.2D-03,  9.9D-02,  7.0D-09, r^2= 2.0D+00
   Bfn.  Coefficient  Atom+Function         Bfn.  Coefficient  Atom+Function  
  ----- ------------  ---------------      ----- ------------  ---------------
     2      0.214060   1 C  s                48      0.202659   2 C  s         
   232      0.202678   6 C  s                94      0.195582   3 C  s         
   186      0.195602   5 C  s               140      0.188213   4 C  s         
    50      0.090196   2 C  s               234      0.090206   6 C  s         
    96      0.088112   3 C  s               188      0.088118   5 C  s         
 
 Vector    8  Occ=1.000000D+00  E=-7.627284D-01
              MO Center= -6.3D-03,  1.0D-01, -1.1D-08, r^2= 2.8D+00
   Bfn.  Coefficient  Atom+Function         Bfn.  Coefficient  Atom+Function  
  ----- ------------  ---------------      ----- ------------  ---------------
    48      0.250864   2 C  s               232     -0.250854   6 C  s         
    94      0.243829   3 C  s               186     -0.243820   5 C  s         
    50      0.146231   2 C  s               234     -0.146227   6 C  s         
   279     -0.129400   7 H  s               371      0.129399  11 H  s         
   150     -0.115550   4 C  px               97      0.110869   3 C  s         
 
 Vector    9  Occ=1.000000D+00  E=-7.537229D-01
              MO Center=  9.3D-03, -1.5D-01,  9.7D-09, r^2= 2.6D+00
   Bfn.  Coefficient  Atom+Function         Bfn.  Coefficient  Atom+Function  
  ----- ------------  ---------------      ----- ------------  ---------------
   140     -0.300914   4 C  s                 2      0.278546   1 C  s         
    94     -0.148865   3 C  s               186     -0.148875   5 C  s         
    48      0.148016   2 C  s               142     -0.147452   4 C  s         
   232      0.148026   6 C  s                96     -0.104900   3 C  s         
   188     -0.104905   5 C  s                 4      0.102978   1 C  s         
 
 Vector   10  Occ=1.000000D+00  E=-6.187350D-01
              MO Center= -2.5D-03,  3.9D-02, -1.3D-08, r^2= 3.6D+00
   Bfn.  Coefficient  Atom+Function         Bfn.  Coefficient  Atom+Function  
  ----- ------------  ---------------      ----- ------------  ---------------
    94     -0.208559   3 C  s               186      0.208566   5 C  s         
    48      0.199466   2 C  s               232     -0.199459   6 C  s         
    50      0.183351   2 C  s               234     -0.183342   6 C  s         
    96     -0.146970   3 C  s               188      0.146976   5 C  s         
     6     -0.127291   1 C  px              144      0.116924   4 C  px        
 
 Vector   11  Occ=1.000000D+00  E=-6.035442D-01
              MO Center=  5.5D-03, -8.6D-02, -1.1D-08, r^2= 3.5D+00
   Bfn.  Coefficient  Atom+Function         Bfn.  Coefficient  Atom+Function  
  ----- ------------  ---------------      ----- ------------  ---------------
   142      0.258337   4 C  s                 2      0.238933   1 C  s         
   140      0.218764   4 C  s                 4      0.198691   1 C  s         
    94     -0.138357   3 C  s               186     -0.138334   5 C  s         
    50     -0.122711   2 C  s               234     -0.122720   6 C  s         
    96     -0.119296   3 C  s               188     -0.119283   5 C  s         
 
 Vector   12  Occ=1.000000D+00  E=-5.277259D-01
              MO Center=  9.5D-03, -1.5D-01, -1.6D-08, r^2= 4.1D+00
   Bfn.  Coefficient  Atom+Function         Bfn.  Coefficient  Atom+Function  
  ----- ------------  ---------------      ----- ------------  ---------------
   148      0.159265   4 C  py              145      0.138832   4 C  py        
   324     -0.126876   9 H  s                55      0.105272   2 C  px        
   240     -0.104893   6 C  py              323     -0.100379   9 H  s         
   237     -0.096194   6 C  py              193     -0.094430   5 C  px        
   278     -0.094454   7 H  s               370     -0.094463  11 H  s         
 
 Vector   13  Occ=1.000000D+00  E=-4.645232D-01
              MO Center= -6.5D-03,  1.0D-01,  9.5D-09, r^2= 2.7D+00
   Bfn.  Coefficient  Atom+Function         Bfn.  Coefficient  Atom+Function  
  ----- ------------  ---------------      ----- ------------  ---------------
     9      0.189035   1 C  px                6      0.175362   1 C  px        
   147      0.172353   4 C  px              144      0.159072   4 C  px        
   239     -0.136935   6 C  px              194     -0.134799   5 C  py        
    56     -0.131374   2 C  py               55     -0.121340   2 C  px        
   191     -0.121472   5 C  py              236     -0.121936   6 C  px        
 
 Vector   14  Occ=1.000000D+00  E=-4.631537D-01
              MO Center=  1.0D-02, -1.6D-01, -5.3D-08, r^2= 4.8D+00
   Bfn.  Coefficient  Atom+Function         Bfn.  Coefficient  Atom+Function  
  ----- ------------  ---------------      ----- ------------  ---------------
     2      0.176561   1 C  s               301      0.136689   8 H  s         
   347      0.136714  10 H  s               140     -0.129402   4 C  s         
   193      0.127859   5 C  px              196      0.120350   5 C  px        
   101     -0.118710   3 C  px              190      0.118648   5 C  px        
    96      0.117527   3 C  s               104     -0.117358   3 C  px        
 
 Vector   15  Occ=1.000000D+00  E=-4.399755D-01
              MO Center= -1.3D-02,  2.1D-01, -3.5D-08, r^2= 4.0D+00
   Bfn.  Coefficient  Atom+Function         Bfn.  Coefficient  Atom+Function  
  ----- ------------  ---------------      ----- ------------  ---------------
   240      0.143975   6 C  py              102      0.139211   3 C  py        
   237      0.132911   6 C  py              278     -0.131473   7 H  s         
   370      0.131477  11 H  s                99      0.130191   3 C  py        
    55      0.129432   2 C  px               56     -0.128740   2 C  py        
   194     -0.126958   5 C  py               53     -0.119652   2 C  py        
 
 Vector   16  Occ=1.000000D+00  E=-3.990475D-01
              MO Center=  4.9D-02, -7.8D-01,  9.2D-10, r^2= 3.3D+00
   Bfn.  Coefficient  Atom+Function         Bfn.  Coefficient  Atom+Function  
  ----- ------------  ---------------      ----- ------------  ---------------
   148      0.233525   4 C  py              145      0.209192   4 C  py        
   324     -0.198613   9 H  s               151      0.172652   4 C  py        
   323     -0.154033   9 H  s                10      0.138629   1 C  py        
    13      0.120955   1 C  py              240      0.115191   6 C  py        
    56      0.109455   2 C  py                7      0.107915   1 C  py        
 
 Vector   17  Occ=1.000000D+00  E=-3.836944D-01
              MO Center= -7.5D-03,  1.2D-01,  4.1D-08, r^2= 2.7D+00
   Bfn.  Coefficient  Atom+Function         Bfn.  Coefficient  Atom+Function  
  ----- ------------  ---------------      ----- ------------  ---------------
    11      0.173443   1 C  pz               57      0.156391   2 C  pz        
   241      0.156405   6 C  pz              103      0.152229   3 C  pz        
   195      0.152242   5 C  pz              149      0.145885   4 C  pz        
     8      0.136815   1 C  pz               54      0.125770   2 C  pz        
   238      0.125781   6 C  pz              100      0.121729   3 C  pz        
 
 Vector   18  Occ=1.000000D+00  E=-3.659844D-01
              MO Center=  8.9D-03, -1.4D-01, -3.0D-08, r^2= 4.1D+00
   Bfn.  Coefficient  Atom+Function         Bfn.  Coefficient  Atom+Function  
  ----- ------------  ---------------      ----- ------------  ---------------
   147     -0.169332   4 C  px              101      0.165190   3 C  px        
   193      0.165094   5 C  px              144     -0.159886   4 C  px        
     9      0.149413   1 C  px               98      0.149466   3 C  px        
   190      0.149147   5 C  px                6      0.141596   1 C  px        
   196      0.135647   5 C  px              104      0.133544   3 C  px        
 
 Vector   19  Occ=1.000000D+00  E=-2.685044D-01
              MO Center=  9.8D-04, -1.5D-02,  4.4D-08, r^2= 3.0D+00
   Bfn.  Coefficient  Atom+Function         Bfn.  Coefficient  Atom+Function  
  ----- ------------  ---------------      ----- ------------  ---------------
    11      0.245300   1 C  pz              149     -0.238529   4 C  pz        
     8      0.192913   1 C  pz              146     -0.190696   4 C  pz        
    14      0.176300   1 C  pz              152     -0.171577   4 C  pz        
   103     -0.126469   3 C  pz              195     -0.126608   5 C  pz        
    57      0.114892   2 C  pz              241      0.114765   6 C  pz        
 
 Vector   20  Occ=1.000000D+00  E=-2.678699D-01
              MO Center= -3.9D-03,  6.1D-02,  1.3D-08, r^2= 3.1D+00
   Bfn.  Coefficient  Atom+Function         Bfn.  Coefficient  Atom+Function  
  ----- ------------  ---------------      ----- ------------  ---------------
   103      0.207541   3 C  pz              195     -0.207454   5 C  pz        
    57      0.203765   2 C  pz              241     -0.203833   6 C  pz        
   100      0.165350   3 C  pz              192     -0.165281   5 C  pz        
    54      0.163177   2 C  pz              238     -0.163232   6 C  pz        
    60      0.150470   2 C  pz              106      0.150023   3 C  pz        
 
 Vector   21  Occ=1.000000D+00  E=-2.484056D-01
              MO Center= -8.2D-02,  1.3D+00,  2.1D-08, r^2= 2.3D+00
   Bfn.  Coefficient  Atom+Function         Bfn.  Coefficient  Atom+Function  
  ----- ------------  ---------------      ----- ------------  ---------------
    10      0.385984   1 C  py               13      0.337665   1 C  py        
     5      0.335182   1 C  s                 7      0.299342   1 C  py        
     4      0.279488   1 C  s                 2      0.138353   1 C  s         
   243     -0.136151   6 C  py               59     -0.134106   2 C  py        
   102      0.112401   3 C  py              194      0.112405   5 C  py        
 
 Vector   22  Occ=0.000000D+00  E=-2.600588D-02
              MO Center= -4.3D-03,  6.8D-02,  3.9D-08, r^2= 4.3D+00
   Bfn.  Coefficient  Atom+Function         Bfn.  Coefficient  Atom+Function  
  ----- ------------  ---------------      ----- ------------  ---------------
   109     -0.320079   3 C  pz              201      0.320102   5 C  pz        
    63      0.314656   2 C  pz              247     -0.314671   6 C  pz        
    60      0.226986   2 C  pz              244     -0.226995   6 C  pz        
   106     -0.223733   3 C  pz              198      0.223748   5 C  pz        
    57      0.218770   2 C  pz              241     -0.218775   6 C  pz        
 
 Vector   23  Occ=0.000000D+00  E=-1.860418D-02
              MO Center=  3.1D-03, -5.0D-02,  2.2D-08, r^2= 4.3D+00
   Bfn.  Coefficient  Atom+Function         Bfn.  Coefficient  Atom+Function  
  ----- ------------  ---------------      ----- ------------  ---------------
   155      0.439673   4 C  pz               17      0.373607   1 C  pz        
   152      0.273940   4 C  pz               11      0.258938   1 C  pz        
   149      0.250784   4 C  pz               14      0.240506   1 C  pz        
   109     -0.226105   3 C  pz              201     -0.226094   5 C  pz        
     8      0.200613   1 C  pz               63     -0.198226   2 C  pz        
 
 Vector   24  Occ=0.000000D+00  E=-1.013556D-02
              MO Center=  6.0D-02, -9.5D-01, -1.5D-07, r^2= 2.0D+01
   Bfn.  Coefficient  Atom+Function         Bfn.  Coefficient  Atom+Function  
  ----- ------------  ---------------      ----- ------------  ---------------
     5      1.433794   1 C  s               279     -0.986508   7 H  s         
   371     -0.986494  11 H  s               326     -0.755269   9 H  s         
   303     -0.724160   8 H  s               349     -0.724343  10 H  s         
   302     -0.655457   8 H  s               348     -0.655443  10 H  s         
   325     -0.591456   9 H  s                51      0.579372   2 C  s         
 
 Vector   25  Occ=0.000000D+00  E= 4.293535D-03
              MO Center=  1.5D-02, -2.5D-01, -2.3D-07, r^2= 2.7D+01
   Bfn.  Coefficient  Atom+Function         Bfn.  Coefficient  Atom+Function  
  ----- ------------  ---------------      ----- ------------  ---------------
    51      2.848446   2 C  s               235     -2.848843   6 C  s         
    97      2.711665   3 C  s               189     -2.711656   5 C  s         
   303      1.997091   8 H  s               349     -1.997001  10 H  s         
    15      1.905606   1 C  px              153      1.849453   4 C  px        
   280      1.577034   7 H  s               372     -1.577163  11 H  s         
 
 Vector   26  Occ=0.000000D+00  E= 8.587094D-03
              MO Center=  5.2D-03, -8.2D-02, -1.6D-07, r^2= 2.7D+01
   Bfn.  Coefficient  Atom+Function         Bfn.  Coefficient  Atom+Function  
  ----- ------------  ---------------      ----- ------------  ---------------
   143      6.477302   4 C  s                51     -4.146290   2 C  s         
   235     -4.146121   6 C  s               326      2.996885   9 H  s         
     5      2.589239   1 C  s               280     -2.417514   7 H  s         
   372     -2.417516  11 H  s               154      2.005702   4 C  py        
   246      1.991306   6 C  py               62      1.886401   2 C  py        
 
 Vector   27  Occ=0.000000D+00  E= 2.652733D-02
              MO Center= -1.5D-02,  2.4D-01, -2.0D-07, r^2= 3.1D+01
   Bfn.  Coefficient  Atom+Function         Bfn.  Coefficient  Atom+Function  
  ----- ------------  ---------------      ----- ------------  ---------------
   280      3.991146   7 H  s               372     -3.991100  11 H  s         
    51      3.859078   2 C  s               235     -3.858680   6 C  s         
   303     -3.634811   8 H  s               349      3.635107  10 H  s         
    61      2.281372   2 C  px               97     -2.233030   3 C  s         
   189      2.232983   5 C  s               245      2.099653   6 C  px        
 
 Vector   28  Occ=0.000000D+00  E= 3.210353D-02
              MO Center=  4.0D-02, -6.4D-01, -1.6D-08, r^2= 2.9D+01
   Bfn.  Coefficient  Atom+Function         Bfn.  Coefficient  Atom+Function  
  ----- ------------  ---------------      ----- ------------  ---------------
     5      6.261118   1 C  s               326     -5.077466   9 H  s         
   303      3.772298   8 H  s               349      3.771906  10 H  s         
   154     -2.249947   4 C  py               97     -2.153273   3 C  s         
   189     -2.153604   5 C  s               199     -1.694026   5 C  px        
   245      1.627784   6 C  px              107      1.602464   3 C  px        
 
 Vector   29  Occ=0.000000D+00  E= 4.332642D-02
              MO Center=  1.4D-02, -2.2D-01,  1.1D-07, r^2= 1.3D+01
   Bfn.  Coefficient  Atom+Function         Bfn.  Coefficient  Atom+Function  
  ----- ------------  ---------------      ----- ------------  ---------------
   155      0.599351   4 C  pz               63      0.577240   2 C  pz        
   247      0.577287   6 C  pz               17     -0.261782   1 C  pz        
    60     -0.154783   2 C  pz              244     -0.154757   6 C  pz        
   289     -0.123628   7 H  pz              381     -0.123631  11 H  pz        
   259      0.119891   6 C  d -1             77      0.109829   2 C  d  1      
 
 Vector   30  Occ=0.000000D+00  E= 5.497982D-02
              MO Center=  9.2D-03, -1.5D-01, -1.4D-07, r^2= 1.5D+01
   Bfn.  Coefficient  Atom+Function         Bfn.  Coefficient  Atom+Function  
  ----- ------------  ---------------      ----- ------------  ---------------
     5     10.908936   1 C  s               143      5.389311   4 C  s         
    51     -4.585789   2 C  s               235     -4.586013   6 C  s         
   303     -2.840513   8 H  s               349     -2.840623  10 H  s         
   326      2.110576   9 H  s               199      2.033012   5 C  px        
    97     -1.994422   3 C  s               189     -1.994615   5 C  s         
 
 Vector   31  Occ=0.000000D+00  E= 6.323072D-02
              MO Center= -4.1D-02,  6.5D-01,  3.7D-07, r^2= 2.8D+01
   Bfn.  Coefficient  Atom+Function         Bfn.  Coefficient  Atom+Function  
  ----- ------------  ---------------      ----- ------------  ---------------
     5     24.386625   1 C  s                51     -9.964692   2 C  s         
   235     -9.965092   6 C  s               143      7.750888   4 C  s         
    97     -6.521578   3 C  s               189     -6.521659   5 C  s         
   326      5.927165   9 H  s               154      4.837978   4 C  py        
   303     -4.684709   8 H  s               349     -4.684585  10 H  s         
 
 Vector   32  Occ=0.000000D+00  E= 6.574208D-02
              MO Center=  1.5D-03, -2.5D-02,  3.7D-07, r^2= 1.8D+01
   Bfn.  Coefficient  Atom+Function         Bfn.  Coefficient  Atom+Function  
  ----- ------------  ---------------      ----- ------------  ---------------
   109      0.976624   3 C  pz              201     -0.976643   5 C  pz        
    63      0.770345   2 C  pz              247     -0.770379   6 C  pz        
   169     -0.677206   4 C  d  1             31     -0.583496   1 C  d  1      
   106      0.492677   3 C  pz              198     -0.492666   5 C  pz        
    60      0.488598   2 C  pz              244     -0.488625   6 C  pz        
 
 Vector   33  Occ=0.000000D+00  E= 6.826589D-02
              MO Center= -1.2D-02,  1.9D-01, -7.1D-08, r^2= 1.8D+01
   Bfn.  Coefficient  Atom+Function         Bfn.  Coefficient  Atom+Function  
  ----- ------------  ---------------      ----- ------------  ---------------
    63      1.024570   2 C  pz              247      1.024607   6 C  pz        
   109     -0.811979   3 C  pz              201     -0.812107   5 C  pz        
   155     -0.750504   4 C  pz               14      0.629067   1 C  pz        
   152     -0.617276   4 C  pz               17      0.458306   1 C  pz        
   213     -0.449504   5 C  d -1            121     -0.405729   3 C  d -1      
 
 Vector   34  Occ=0.000000D+00  E= 7.604356D-02
              MO Center=  8.8D-03, -1.2D-01, -4.4D-07, r^2= 3.5D+01
   Bfn.  Coefficient  Atom+Function         Bfn.  Coefficient  Atom+Function  
  ----- ------------  ---------------      ----- ------------  ---------------
    51     14.198063   2 C  s               235    -14.195092   6 C  s         
    97     12.388082   3 C  s               189    -12.387032   5 C  s         
    15      7.755295   1 C  px              153      7.788264   4 C  px        
   107      4.742694   3 C  px              303      4.636731   8 H  s         
   349     -4.637560  10 H  s               199      4.429430   5 C  px        
 
 Vector   35  Occ=0.000000D+00  E= 7.751391D-02
              MO Center=  2.0D-01, -3.2D+00, -1.7D-07, r^2= 2.1D+01
   Bfn.  Coefficient  Atom+Function         Bfn.  Coefficient  Atom+Function  
  ----- ------------  ---------------      ----- ------------  ---------------
   143     19.863410   4 C  s                51    -14.136756   2 C  s         
   235    -14.142644   6 C  s               326      7.344929   9 H  s         
    62      6.046703   2 C  py              246      6.074402   6 C  py        
   200      5.723876   5 C  py              154      5.571257   4 C  py        
   108      5.328223   3 C  py              279      4.098653   7 H  s         
 
 Vector   36  Occ=0.000000D+00  E= 8.121784D-02
              MO Center= -8.8D-02,  1.4D+00, -3.4D-07, r^2= 2.7D+01
   Bfn.  Coefficient  Atom+Function         Bfn.  Coefficient  Atom+Function  
  ----- ------------  ---------------      ----- ------------  ---------------
   143     19.599341   4 C  s                51     -8.120135   2 C  s         
   235     -8.116463   6 C  s               325     -4.926297   9 H  s         
   246      4.898894   6 C  py               62      4.803119   2 C  py        
   280     -4.368336   7 H  s               372     -4.367470  11 H  s         
    97      4.144745   3 C  s               189      4.149278   5 C  s         
 
 Vector   37  Occ=0.000000D+00  E= 8.313581D-02
              MO Center=  4.7D-02, -7.4D-01, -3.2D-08, r^2= 2.2D+01
   Bfn.  Coefficient  Atom+Function         Bfn.  Coefficient  Atom+Function  
  ----- ------------  ---------------      ----- ------------  ---------------
    97      5.019097   3 C  s               189     -5.018948   5 C  s         
    51     -3.319576   2 C  s               235      3.317296   6 C  s         
   108      2.859810   3 C  py              303      2.857588   8 H  s         
   349     -2.857545  10 H  s               200     -2.738994   5 C  py        
   153      2.563629   4 C  px               96      2.130402   3 C  s         
 
 Vector   38  Occ=0.000000D+00  E= 9.496909D-02
              MO Center= -5.4D-02,  8.5D-01, -1.8D-07, r^2= 3.0D+01
   Bfn.  Coefficient  Atom+Function         Bfn.  Coefficient  Atom+Function  
  ----- ------------  ---------------      ----- ------------  ---------------
    51     17.588361   2 C  s               235    -17.586752   6 C  s         
   280      7.197989   7 H  s               372     -7.198061  11 H  s         
    97     -7.116614   3 C  s               189      7.116274   5 C  s         
   108     -6.412006   3 C  py              303     -6.244648   8 H  s         
   349      6.245372  10 H  s               200      5.859972   5 C  py        
 
 Vector   39  Occ=0.000000D+00  E= 1.017760D-01
              MO Center= -6.9D-03,  1.1D-01, -9.2D-08, r^2= 1.9D+01
   Bfn.  Coefficient  Atom+Function         Bfn.  Coefficient  Atom+Function  
  ----- ------------  ---------------      ----- ------------  ---------------
    51     13.884749   2 C  s               235    -13.885521   6 C  s         
    97     10.844559   3 C  s               189    -10.844228   5 C  s         
    15     10.047768   1 C  px              153      9.750910   4 C  px        
   108     -6.077565   3 C  py              200      6.042134   5 C  py        
   246     -6.069200   6 C  py               62      5.887993   2 C  py        
 
 Vector   40  Occ=0.000000D+00  E= 1.064271D-01
              MO Center= -7.5D-03,  1.2D-01,  2.5D-08, r^2= 2.1D+01
   Bfn.  Coefficient  Atom+Function         Bfn.  Coefficient  Atom+Function  
  ----- ------------  ---------------      ----- ------------  ---------------
   143     18.098747   4 C  s                51     -9.881109   2 C  s         
   235     -9.881627   6 C  s                 5     -9.317849   1 C  s         
   107     -8.827524   3 C  px              199      8.067722   5 C  px        
   245     -7.028635   6 C  px              200      6.560865   5 C  py        
    61      6.490958   2 C  px              108      5.496291   3 C  py        
 
 Vector   41  Occ=0.000000D+00  E= 1.082023D-01
              MO Center= -1.0D-02,  1.6D-01,  1.2D-07, r^2= 2.2D+01
   Bfn.  Coefficient  Atom+Function         Bfn.  Coefficient  Atom+Function  
  ----- ------------  ---------------      ----- ------------  ---------------
    63      3.391794   2 C  pz              247     -3.391690   6 C  pz        
   109     -3.363515   3 C  pz              201      3.363219   5 C  pz        
    60      0.697030   2 C  pz              244     -0.696999   6 C  pz        
   106     -0.636977   3 C  pz              198      0.636908   5 C  pz        
    77     -0.380378   2 C  d  1            215      0.361287   5 C  d  1      
 
 Vector   42  Occ=0.000000D+00  E= 1.089639D-01
              MO Center=  3.0D-02, -4.7D-01, -1.9D-08, r^2= 2.1D+01
   Bfn.  Coefficient  Atom+Function         Bfn.  Coefficient  Atom+Function  
  ----- ------------  ---------------      ----- ------------  ---------------
   155      5.322592   4 C  pz              109     -3.443264   3 C  pz        
   201     -3.443445   5 C  pz               17      2.511117   1 C  pz        
   152      0.983591   4 C  pz              106     -0.603412   3 C  pz        
   198     -0.603435   5 C  pz              167      0.569391   4 C  d -1      
    14      0.504773   1 C  pz               63     -0.475589   2 C  pz        
 
 Vector   43  Occ=0.000000D+00  E= 1.092933D-01
              MO Center=  2.8D-02, -4.5D-01, -5.4D-08, r^2= 2.6D+01
   Bfn.  Coefficient  Atom+Function         Bfn.  Coefficient  Atom+Function  
  ----- ------------  ---------------      ----- ------------  ---------------
   326      7.564394   9 H  s               154      7.200267   4 C  py        
   303     -6.387335   8 H  s               349     -6.386817  10 H  s         
   143     -6.222577   4 C  s               108     -4.676284   3 C  py        
   200     -4.464366   5 C  py               62     -4.300144   2 C  py        
   246     -4.251100   6 C  py                4      3.908204   1 C  s         
 
 Vector   44  Occ=0.000000D+00  E= 1.178171D-01
              MO Center= -4.1D-02,  6.5D-01,  2.3D-07, r^2= 1.4D+01
   Bfn.  Coefficient  Atom+Function         Bfn.  Coefficient  Atom+Function  
  ----- ------------  ---------------      ----- ------------  ---------------
    17      6.881639   1 C  pz               63     -6.024742   2 C  pz        
   247     -6.024922   6 C  pz              109      5.054755   3 C  pz        
   201      5.054945   5 C  pz              155     -4.825296   4 C  pz        
    14      1.236056   1 C  pz               60     -1.020894   2 C  pz        
   244     -1.020933   6 C  pz              106      0.892643   3 C  pz        
 
 Vector   45  Occ=0.000000D+00  E= 1.263772D-01
              MO Center= -1.8D-02,  2.9D-01, -2.2D-09, r^2= 2.5D+01
   Bfn.  Coefficient  Atom+Function         Bfn.  Coefficient  Atom+Function  
  ----- ------------  ---------------      ----- ------------  ---------------
    51      7.594254   2 C  s               235     -7.594192   6 C  s         
   107      7.198332   3 C  px              199      7.121192   5 C  px        
   245     -7.031330   6 C  px               61     -6.920118   2 C  px        
    15      6.448234   1 C  px               97     -6.199007   3 C  s         
   189      6.199077   5 C  s               153     -5.819622   4 C  px        
 
 Vector   46  Occ=0.000000D+00  E= 1.273985D-01
              MO Center= -1.2D-02,  2.0D-01,  2.7D-08, r^2= 2.6D+01
   Bfn.  Coefficient  Atom+Function         Bfn.  Coefficient  Atom+Function  
  ----- ------------  ---------------      ----- ------------  ---------------
   154     -8.017191   4 C  py               16      7.440831   1 C  py        
   108      6.881712   3 C  py               62     -6.585456   2 C  py        
   200      6.565849   5 C  py              246     -6.394182   6 C  py        
   326     -4.009182   9 H  s                 5      3.485491   1 C  s         
   303      3.131194   8 H  s               349      3.130682  10 H  s         
 
 Vector   47  Occ=0.000000D+00  E= 1.609516D-01
              MO Center= -8.7D-03,  1.4D-01, -1.9D-08, r^2= 1.7D+01
   Bfn.  Coefficient  Atom+Function         Bfn.  Coefficient  Atom+Function  
  ----- ------------  ---------------      ----- ------------  ---------------
    17      8.192255   1 C  pz               63     -8.004015   2 C  pz        
   247     -8.003888   6 C  pz              155     -7.856026   4 C  pz        
   109      7.770716   3 C  pz              201      7.770585   5 C  pz        
    60     -1.192045   2 C  pz              106      1.192684   3 C  pz        
   198      1.192650   5 C  pz              244     -1.192015   6 C  pz        
 
 Vector   48  Occ=0.000000D+00  E= 1.659367D-01
              MO Center= -8.9D-02,  1.4D+00,  1.3D-07, r^2= 2.2D+01
   Bfn.  Coefficient  Atom+Function         Bfn.  Coefficient  Atom+Function  
  ----- ------------  ---------------      ----- ------------  ---------------
     5     59.241132   1 C  s                51    -26.067887   2 C  s         
   143     26.093785   4 C  s               235    -26.068406   6 C  s         
    97    -14.417296   3 C  s               189    -14.417601   5 C  s         
   154      7.443600   4 C  py              245      6.815092   6 C  px        
    61     -6.401676   2 C  px              326      6.156678   9 H  s         
 
 Vector   49  Occ=0.000000D+00  E= 1.754430D-01
              MO Center=  2.5D-02, -3.9D-01,  1.1D-06, r^2= 1.1D+01
   Bfn.  Coefficient  Atom+Function         Bfn.  Coefficient  Atom+Function  
  ----- ------------  ---------------      ----- ------------  ---------------
   335      1.104943   9 H  pz              312      1.079339   8 H  pz        
   358      1.079400  10 H  pz              289      0.973422   7 H  pz        
   381      0.973473  11 H  pz               17      0.957193   1 C  pz        
    63     -0.882888   2 C  pz              247     -0.882924   6 C  pz        
   106     -0.843881   3 C  pz              198     -0.843947   5 C  pz        
 
 Vector   50  Occ=0.000000D+00  E= 1.863830D-01
              MO Center=  3.5D-02, -5.5D-01, -1.2D-06, r^2= 1.5D+01
   Bfn.  Coefficient  Atom+Function         Bfn.  Coefficient  Atom+Function  
  ----- ------------  ---------------      ----- ------------  ---------------
     5     15.439603   1 C  s                97     -7.258597   3 C  s         
   189     -7.258861   5 C  s                51     -4.442229   2 C  s         
   235     -4.442555   6 C  s               325      4.434295   9 H  s         
    62     -4.043009   2 C  py              154      3.971670   4 C  py        
   246     -3.823135   6 C  py              302      3.264845   8 H  s         
 
 Vector   51  Occ=0.000000D+00  E= 1.977538D-01
              MO Center= -3.0D-02,  4.8D-01,  2.1D-07, r^2= 2.3D+01
   Bfn.  Coefficient  Atom+Function         Bfn.  Coefficient  Atom+Function  
  ----- ------------  ---------------      ----- ------------  ---------------
    51     44.618311   2 C  s               235    -44.630070   6 C  s         
    97     25.083003   3 C  s               189    -25.079706   5 C  s         
    15     18.443433   1 C  px              153     17.021098   4 C  px        
   302    -14.020381   8 H  s               348     14.019314  10 H  s         
   200      9.222927   5 C  py              108     -8.502345   3 C  py        
 
 Vector   52  Occ=0.000000D+00  E= 1.980806D-01
              MO Center=  4.6D-02, -7.3D-01,  2.1D-07, r^2= 2.3D+01
   Bfn.  Coefficient  Atom+Function         Bfn.  Coefficient  Atom+Function  
  ----- ------------  ---------------      ----- ------------  ---------------
   143     61.237387   4 C  s                51    -34.468749   2 C  s         
   235    -34.454613   6 C  s               325    -16.852013   9 H  s         
    62     14.713093   2 C  py              246     14.443453   6 C  py        
   200     13.747610   5 C  py              108     12.545309   3 C  py        
     5    -11.710857   1 C  s               279     11.177548   7 H  s         
 
 Vector   53  Occ=0.000000D+00  E= 2.153446D-01
              MO Center=  8.9D-02, -1.4D+00,  7.9D-09, r^2= 1.5D+01
   Bfn.  Coefficient  Atom+Function         Bfn.  Coefficient  Atom+Function  
  ----- ------------  ---------------      ----- ------------  ---------------
    97     14.094272   3 C  s               189    -14.094651   5 C  s         
    96      6.645772   3 C  s               188     -6.645792   5 C  s         
   153      6.345761   4 C  px              279     -5.213688   7 H  s         
   371      5.213842  11 H  s               303      4.777968   8 H  s         
   349     -4.778292  10 H  s               246     -4.526013   6 C  py        
 
 Vector   54  Occ=0.000000D+00  E= 2.182547D-01
              MO Center=  1.8D-02, -2.8D-01, -1.3D-08, r^2= 1.5D+01
   Bfn.  Coefficient  Atom+Function         Bfn.  Coefficient  Atom+Function  
  ----- ------------  ---------------      ----- ------------  ---------------
   143     25.954595   4 C  s                51    -17.886171   2 C  s         
   235    -17.877356   6 C  s                 5     15.936943   1 C  s         
    16     -6.466003   1 C  py              325     -6.098110   9 H  s         
    62      4.881587   2 C  py              246      4.768729   6 C  py        
   279      3.772897   7 H  s               371      3.772224  11 H  s         
 
 Vector   55  Occ=0.000000D+00  E= 2.190727D-01
              MO Center=  4.9D-03, -7.8D-02,  8.6D-07, r^2= 1.5D+01
   Bfn.  Coefficient  Atom+Function         Bfn.  Coefficient  Atom+Function  
  ----- ------------  ---------------      ----- ------------  ---------------
    51     19.936922   2 C  s               235    -19.944108   6 C  s         
   108     -8.493692   3 C  py              200      8.140734   5 C  py        
    15      7.604294   1 C  px              302     -6.981766   8 H  s         
   348      6.981715  10 H  s               153      6.384095   4 C  px        
   246     -4.054506   6 C  py               62      3.923530   2 C  py        
 
 Vector   56  Occ=0.000000D+00  E= 2.300794D-01
              MO Center= -1.8D-02,  2.9D-01,  2.0D-06, r^2= 1.8D+01
   Bfn.  Coefficient  Atom+Function         Bfn.  Coefficient  Atom+Function  
  ----- ------------  ---------------      ----- ------------  ---------------
   199      4.902740   5 C  px              107      4.632469   3 C  px        
   153     -3.576202   4 C  px               50     -3.253528   2 C  s         
   234      3.254103   6 C  s               303      3.149752   8 H  s         
   349     -3.150672  10 H  s                15     -2.642779   1 C  px        
   108      2.430866   3 C  py               59      1.978733   2 C  py        
 
 Vector   57  Occ=0.000000D+00  E= 2.311885D-01
              MO Center= -7.2D-05,  9.5D-04, -3.1D-06, r^2= 1.6D+01
   Bfn.  Coefficient  Atom+Function         Bfn.  Coefficient  Atom+Function  
  ----- ------------  ---------------      ----- ------------  ---------------
   106      2.143031   3 C  pz              198     -2.143020   5 C  pz        
    60      2.047171   2 C  pz              244     -2.047215   6 C  pz        
   312     -1.818352   8 H  pz              358      1.818297  10 H  pz        
   289     -1.720529   7 H  pz              381      1.720576  11 H  pz        
   169     -1.379860   4 C  d  1             31     -1.247252   1 C  d  1      
 
 Vector   58  Occ=0.000000D+00  E= 2.353710D-01
              MO Center= -1.4D-02,  2.2D-01,  3.1D-07, r^2= 1.6D+01
   Bfn.  Coefficient  Atom+Function         Bfn.  Coefficient  Atom+Function  
  ----- ------------  ---------------      ----- ------------  ---------------
   143     14.993876   4 C  s                51    -10.506641   2 C  s         
   235    -10.525102   6 C  s               107     -8.215984   3 C  px        
   199      7.787007   5 C  px               61      5.440848   2 C  px        
   245     -5.322836   6 C  px              303     -4.431340   8 H  s         
   349     -4.428522  10 H  s                 5      4.095668   1 C  s         
 
 Vector   59  Occ=0.000000D+00  E= 2.364667D-01
              MO Center= -4.7D-03,  7.2D-02, -1.3D-07, r^2= 1.7D+01
   Bfn.  Coefficient  Atom+Function         Bfn.  Coefficient  Atom+Function  
  ----- ------------  ---------------      ----- ------------  ---------------
    97    -33.200011   3 C  s               189     33.199264   5 C  s         
    51     31.556194   2 C  s               235    -31.548955   6 C  s         
    96    -14.396243   3 C  s               188     14.397814   5 C  s         
   279     10.814593   7 H  s               371    -10.816284  11 H  s         
   302    -10.652231   8 H  s               348     10.652505  10 H  s         
 
 Vector   60  Occ=0.000000D+00  E= 2.434580D-01
              MO Center=  2.8D-03, -4.3D-02, -5.2D-07, r^2= 1.5D+01
   Bfn.  Coefficient  Atom+Function         Bfn.  Coefficient  Atom+Function  
  ----- ------------  ---------------      ----- ------------  ---------------
   152      3.413766   4 C  pz               14     -3.025532   1 C  pz        
   289      2.170989   7 H  pz              381      2.170977  11 H  pz        
   335     -2.124828   9 H  pz              261      2.001703   6 C  d  1      
    77     -1.987046   2 C  d  1             63     -1.598025   2 C  pz        
   247     -1.598109   6 C  pz              155      1.369947   4 C  pz        
 
 Vector   61  Occ=0.000000D+00  E= 2.593722D-01
              MO Center=  3.8D-02, -6.1D-01, -8.6D-08, r^2= 1.7D+01
   Bfn.  Coefficient  Atom+Function         Bfn.  Coefficient  Atom+Function  
  ----- ------------  ---------------      ----- ------------  ---------------
     5      8.665671   1 C  s               108     -6.630774   3 C  py        
   200     -6.042543   5 C  py              303     -5.155758   8 H  s         
   349     -5.155808  10 H  s               199      5.068150   5 C  px        
   197     -4.837763   5 C  py              105     -4.735264   3 C  py        
   143     -4.747576   4 C  s               154      4.382379   4 C  py        
 
 Vector   62  Occ=0.000000D+00  E= 2.618474D-01
              MO Center=  6.8D-02, -1.1D+00, -1.7D-08, r^2= 1.7D+01
   Bfn.  Coefficient  Atom+Function         Bfn.  Coefficient  Atom+Function  
  ----- ------------  ---------------      ----- ------------  ---------------
     5     18.965842   1 C  s               154     15.346726   4 C  py        
   143     15.006672   4 C  s                51    -14.454999   2 C  s         
   235    -14.453612   6 C  s               326      9.129046   9 H  s         
     4      6.030087   1 C  s               108     -4.808636   3 C  py        
    97     -4.672220   3 C  s               189     -4.673773   5 C  s         
 
 Vector   63  Occ=0.000000D+00  E= 2.674202D-01
              MO Center= -2.7D-02,  4.2D-01, -3.0D-08, r^2= 2.0D+01
   Bfn.  Coefficient  Atom+Function         Bfn.  Coefficient  Atom+Function  
  ----- ------------  ---------------      ----- ------------  ---------------
    51     20.059188   2 C  s               235    -20.059764   6 C  s         
    97    -11.902843   3 C  s               189     11.902306   5 C  s         
    61     10.993822   2 C  px              245     10.243713   6 C  px        
    96     -8.736546   3 C  s               188      8.736311   5 C  s         
   279      8.742231   7 H  s               371     -8.741755  11 H  s         
 
 Vector   64  Occ=0.000000D+00  E= 2.747603D-01
              MO Center= -1.3D-03,  2.1D-02, -1.7D-09, r^2= 1.4D+01
   Bfn.  Coefficient  Atom+Function         Bfn.  Coefficient  Atom+Function  
  ----- ------------  ---------------      ----- ------------  ---------------
   143      8.878916   4 C  s                 5      8.681869   1 C  s         
   154      5.732509   4 C  py              279     -5.652711   7 H  s         
   371     -5.653393  11 H  s               302     -4.654885   8 H  s         
   348     -4.655268  10 H  s               325     -4.364277   9 H  s         
    16     -4.024800   1 C  py              246      3.240044   6 C  py        
 
 Vector   65  Occ=0.000000D+00  E= 2.829266D-01
              MO Center= -1.2D-02,  1.9D-01, -8.4D-09, r^2= 1.6D+01
   Bfn.  Coefficient  Atom+Function         Bfn.  Coefficient  Atom+Function  
  ----- ------------  ---------------      ----- ------------  ---------------
    12      9.533600   1 C  px               97      8.851121   3 C  s         
   189     -8.851056   5 C  s               302      8.086871   8 H  s         
   348     -8.087245  10 H  s                51     -7.991890   2 C  s         
   235      7.992383   6 C  s               199      7.610966   5 C  px        
   107      7.140898   3 C  px              150      6.191020   4 C  px        
 
 Vector   66  Occ=0.000000D+00  E= 2.954360D-01
              MO Center= -3.2D-03,  5.2D-02,  3.8D-08, r^2= 1.6D+01
   Bfn.  Coefficient  Atom+Function         Bfn.  Coefficient  Atom+Function  
  ----- ------------  ---------------      ----- ------------  ---------------
    63      3.201159   2 C  pz              109     -3.188243   3 C  pz        
   201      3.188717   5 C  pz              247     -3.201422   6 C  pz        
   289     -2.279632   7 H  pz              381      2.279601  11 H  pz        
    60      2.256918   2 C  pz              244     -2.256905   6 C  pz        
   312      2.261697   8 H  pz              358     -2.261823  10 H  pz        
 
 Vector   67  Occ=0.000000D+00  E= 2.962760D-01
              MO Center= -6.0D-02,  9.6D-01, -7.3D-08, r^2= 1.4D+01
   Bfn.  Coefficient  Atom+Function         Bfn.  Coefficient  Atom+Function  
  ----- ------------  ---------------      ----- ------------  ---------------
     4     10.429327   1 C  s                59     -5.743432   2 C  py        
   243     -5.634085   6 C  py                5      5.528600   1 C  s         
   105     -5.527950   3 C  py              197     -5.139558   5 C  py        
    16      4.277658   1 C  py              279     -4.185724   7 H  s         
   371     -4.185935  11 H  s                13      3.916189   1 C  py        
 
 Vector   68  Occ=0.000000D+00  E= 3.080381D-01
              MO Center=  1.7D-02, -2.7D-01,  2.6D-08, r^2= 1.5D+01
   Bfn.  Coefficient  Atom+Function         Bfn.  Coefficient  Atom+Function  
  ----- ------------  ---------------      ----- ------------  ---------------
   155      5.178003   4 C  pz               14      4.363274   1 C  pz        
   109     -3.739676   3 C  pz              201     -3.739500   5 C  pz        
   335     -2.710430   9 H  pz               60     -2.049302   2 C  pz        
   244     -2.049433   6 C  pz              152      1.852290   4 C  pz        
    17      1.841480   1 C  pz               29     -1.719195   1 C  d -1      
 
 Vector   69  Occ=0.000000D+00  E= 3.150507D-01
              MO Center=  4.6D-03, -7.3D-02,  3.8D-07, r^2= 9.1D+00
   Bfn.  Coefficient  Atom+Function         Bfn.  Coefficient  Atom+Function  
  ----- ------------  ---------------      ----- ------------  ---------------
   261      1.252942   6 C  d  1             77      1.133616   2 C  d  1      
   169     -1.083973   4 C  d  1             75     -1.023950   2 C  d -1      
   259      0.873508   6 C  d -1            289     -0.721104   7 H  pz        
   381      0.721097  11 H  pz               31      0.634787   1 C  d  1      
    60     -0.336594   2 C  pz              244      0.336340   6 C  pz        
 
 Vector   70  Occ=0.000000D+00  E= 3.284830D-01
              MO Center=  3.9D-02, -6.2D-01,  9.4D-07, r^2= 1.5D+01
   Bfn.  Coefficient  Atom+Function         Bfn.  Coefficient  Atom+Function  
  ----- ------------  ---------------      ----- ------------  ---------------
   142     12.141257   4 C  s                96      8.714358   3 C  s         
   188      8.714220   5 C  s               151     -6.840832   4 C  py        
   325     -5.846520   9 H  s                 4     -5.237636   1 C  s         
   334     -5.007904   9 H  py                5      4.918693   1 C  s         
   302     -4.387391   8 H  s               348     -4.387980  10 H  s         
 
 Vector   71  Occ=0.000000D+00  E= 3.347592D-01
              MO Center= -1.6D-03,  2.5D-02, -8.5D-07, r^2= 7.7D+00
   Bfn.  Coefficient  Atom+Function         Bfn.  Coefficient  Atom+Function  
  ----- ------------  ---------------      ----- ------------  ---------------
   289      2.029717   7 H  pz              381      2.029554  11 H  pz        
   335      1.839932   9 H  pz               14     -1.773699   1 C  pz        
   155     -1.703688   4 C  pz               63     -1.544899   2 C  pz        
   247     -1.544881   6 C  pz               77     -1.512483   2 C  d  1      
   261      1.412116   6 C  d  1            106     -1.285234   3 C  pz        
 
 Vector   72  Occ=0.000000D+00  E= 3.433215D-01
              MO Center=  2.5D-02, -3.9D-01, -6.0D-07, r^2= 1.2D+01
   Bfn.  Coefficient  Atom+Function         Bfn.  Coefficient  Atom+Function  
  ----- ------------  ---------------      ----- ------------  ---------------
   169      3.294404   4 C  d  1             31      2.702851   1 C  d  1      
   312     -2.481087   8 H  pz              358      2.481443  10 H  pz        
   123      2.184880   3 C  d  1            215      2.144896   5 C  d  1      
   106     -1.797707   3 C  pz              198      1.797668   5 C  pz        
   289     -1.427673   7 H  pz              381      1.427880  11 H  pz        
 
 Vector   73  Occ=0.000000D+00  E= 3.449092D-01
              MO Center= -3.5D-02,  5.6D-01, -1.9D-07, r^2= 1.2D+01
   Bfn.  Coefficient  Atom+Function         Bfn.  Coefficient  Atom+Function  
  ----- ------------  ---------------      ----- ------------  ---------------
   143     23.706842   4 C  s               325    -13.027571   9 H  s         
   279     11.904787   7 H  s               371     11.901138  11 H  s         
    51    -11.770827   2 C  s               235    -11.762039   6 C  s         
     5     -7.659172   1 C  s               197     -6.908150   5 C  py        
   105     -6.788199   3 C  py              243     -6.027858   6 C  py        
 
 Vector   74  Occ=0.000000D+00  E= 3.477930D-01
              MO Center=  9.6D-03, -1.5D-01,  8.4D-07, r^2= 1.2D+01
   Bfn.  Coefficient  Atom+Function         Bfn.  Coefficient  Atom+Function  
  ----- ------------  ---------------      ----- ------------  ---------------
    51     21.162971   2 C  s               235    -21.166698   6 C  s         
   302    -11.986983   8 H  s               348     11.984615  10 H  s         
    97     10.955543   3 C  s               189    -10.953382   5 C  s         
   279     -9.766169   7 H  s               371      9.771981  11 H  s         
    12     -8.094823   1 C  px              150     -7.038842   4 C  px        
 
 Vector   75  Occ=0.000000D+00  E= 3.481661D-01
              MO Center=  3.3D-02, -5.2D-01,  3.4D-07, r^2= 1.3D+01
   Bfn.  Coefficient  Atom+Function         Bfn.  Coefficient  Atom+Function  
  ----- ------------  ---------------      ----- ------------  ---------------
   155     -3.974790   4 C  pz               17      3.785511   1 C  pz        
   109      3.565110   3 C  pz              201      3.565018   5 C  pz        
    63     -3.455255   2 C  pz              247     -3.455161   6 C  pz        
   152     -3.002296   4 C  pz              213     -2.310437   5 C  d -1      
   289      2.266431   7 H  pz              381      2.266666  11 H  pz        
 
 Vector   76  Occ=0.000000D+00  E= 3.527406D-01
              MO Center=  3.3D-02, -5.3D-01, -3.9D-07, r^2= 1.4D+01
   Bfn.  Coefficient  Atom+Function         Bfn.  Coefficient  Atom+Function  
  ----- ------------  ---------------      ----- ------------  ---------------
    17      6.391879   1 C  pz               63     -5.860401   2 C  pz        
   247     -5.860336   6 C  pz              109      5.126681   3 C  pz        
   201      5.126649   5 C  pz              155     -4.853561   4 C  pz        
   335      3.962736   9 H  pz               14      3.795274   1 C  pz        
   167      3.079628   4 C  d -1             60     -2.684730   2 C  pz        
 
 Vector   77  Occ=0.000000D+00  E= 3.546152D-01
              MO Center= -2.0D-02,  3.1D-01,  9.6D-08, r^2= 1.5D+01
   Bfn.  Coefficient  Atom+Function         Bfn.  Coefficient  Atom+Function  
  ----- ------------  ---------------      ----- ------------  ---------------
     5     31.372418   1 C  s               143     15.867760   4 C  s         
    51    -15.730908   2 C  s               235    -15.733174   6 C  s         
   151    -11.079420   4 C  py              196     -7.594514   5 C  px        
    50      7.388318   2 C  s               234      7.388045   6 C  s         
    13      7.278516   1 C  py              104      7.152409   3 C  px        
 
 Vector   78  Occ=0.000000D+00  E= 3.599072D-01
              MO Center= -4.7D-02,  7.5D-01, -9.1D-08, r^2= 1.3D+01
   Bfn.  Coefficient  Atom+Function         Bfn.  Coefficient  Atom+Function  
  ----- ------------  ---------------      ----- ------------  ---------------
   289      3.406456   7 H  pz              381     -3.406356  11 H  pz        
    60      3.158005   2 C  pz              244     -3.157962   6 C  pz        
    77     -3.083750   2 C  d  1            121     -3.088448   3 C  d -1      
   259      3.025590   6 C  d -1            213      2.786814   5 C  d -1      
   312     -2.763303   8 H  pz              358      2.763438  10 H  pz        
 
 Vector   79  Occ=0.000000D+00  E= 3.685453D-01
              MO Center=  3.6D-02, -5.7D-01, -4.4D-08, r^2= 1.3D+01
   Bfn.  Coefficient  Atom+Function         Bfn.  Coefficient  Atom+Function  
  ----- ------------  ---------------      ----- ------------  ---------------
    96     10.726487   3 C  s               188     10.727850   5 C  s         
   104     -8.502374   3 C  px              196      8.493945   5 C  px        
   142     -7.537930   4 C  s                 5      7.209677   1 C  s         
   212      5.404495   5 C  d -2            258      5.322908   6 C  d -2      
   120     -5.229349   3 C  d -2            242     -5.097208   6 C  px        
 
 Vector   80  Occ=0.000000D+00  E= 3.720737D-01
              MO Center=  1.9D-02, -3.1D-01,  9.6D-09, r^2= 1.3D+01
   Bfn.  Coefficient  Atom+Function         Bfn.  Coefficient  Atom+Function  
  ----- ------------  ---------------      ----- ------------  ---------------
    97      9.850780   3 C  s               189     -9.852083   5 C  s         
    50      9.026517   2 C  s               234     -9.027048   6 C  s         
   279     -5.492905   7 H  s               371      5.490334  11 H  s         
   357      5.247498  10 H  py              311     -5.129969   8 H  py        
   212     -4.886378   5 C  d -2             51     -4.801517   2 C  s         
 
 Vector   81  Occ=0.000000D+00  E= 3.819025D-01
              MO Center=  3.6D-02, -5.7D-01, -1.5D-07, r^2= 1.6D+01
   Bfn.  Coefficient  Atom+Function         Bfn.  Coefficient  Atom+Function  
  ----- ------------  ---------------      ----- ------------  ---------------
   166      9.083473   4 C  d -2            333      7.118374   9 H  px        
   150     -6.666827   4 C  px              216     -6.561897   5 C  d  2      
   124      6.107425   3 C  d  2            279      5.863553   7 H  s         
   371     -5.863189  11 H  s               310      5.088313   8 H  px        
   356      5.024206  10 H  px               96     -4.807578   3 C  s         
 
 Vector   82  Occ=0.000000D+00  E= 3.932574D-01
              MO Center= -2.9D-02,  4.6D-01, -5.2D-07, r^2= 1.5D+01
   Bfn.  Coefficient  Atom+Function         Bfn.  Coefficient  Atom+Function  
  ----- ------------  ---------------      ----- ------------  ---------------
    12     12.181698   1 C  px               51    -11.047224   2 C  s         
   235     11.045531   6 C  s                78     -9.087755   2 C  d  2      
   262      8.760006   6 C  d  2             15     -6.829162   1 C  px        
   216      6.672536   5 C  d  2            153     -5.861344   4 C  px        
   124     -5.831201   3 C  d  2            379     -5.816308  11 H  px        
 
 Vector   83  Occ=0.000000D+00  E= 3.960266D-01
              MO Center= -5.2D-02,  8.3D-01, -7.8D-08, r^2= 1.2D+01
   Bfn.  Coefficient  Atom+Function         Bfn.  Coefficient  Atom+Function  
  ----- ------------  ---------------      ----- ------------  ---------------
   152     -7.531640   4 C  pz              106      7.337125   3 C  pz        
   198      7.336942   5 C  pz               60     -6.480457   2 C  pz        
[...]
          33    -0.27888     0.20692    -0.00000     0.00000     0.33162     0.25877

                   13          14          15          16          17          18
 
 P.Frequency      815.46      897.09      977.28      992.29     1006.59     1016.13
 
           1     0.00000    -0.00000    -0.00000    -0.00962    -0.00000    -0.00415
           2     0.00000     0.00000     0.00000     0.15268    -0.00000     0.06579
           3     0.00001    -0.02203    -0.00000    -0.00000    -0.00328     0.00000
           4    -0.00000    -0.00000     0.00000     0.05183    -0.00000    -0.08184
           5    -0.00000    -0.00000    -0.00000    -0.05282     0.00000     0.06702
           6     0.07619     0.08184     0.07077    -0.00000    -0.02479     0.00000
           7    -0.00000    -0.00000    -0.00000    -0.09540    -0.00000    -0.09963
           8     0.00000    -0.00000    -0.00000    -0.07208     0.00000    -0.04850
           9     0.05448    -0.02468    -0.08659     0.00000     0.07423    -0.00000
          10     0.00000     0.00000    -0.00000    -0.00747     0.00000     0.00911
          11     0.00000    -0.00000     0.00000     0.11856    -0.00000    -0.14476
          12     0.00001    -0.08195    -0.00004    -0.00000    -0.09653     0.00000
          13    -0.00000     0.00000     0.00000     0.10369     0.00000     0.10495
          14    -0.00000    -0.00000    -0.00000    -0.05954     0.00000    -0.03565
          15    -0.05448    -0.02474     0.08661     0.00000     0.07421    -0.00000
          16    -0.00000     0.00000    -0.00000    -0.04480     0.00000     0.07279
          17     0.00000     0.00000    -0.00000    -0.05892     0.00000     0.07680
          18    -0.07621     0.08187    -0.07074     0.00000    -0.02477     0.00000
          19     0.00000     0.00000     0.00000     0.02938    -0.00000    -0.04021
          20    -0.00000     0.00000     0.00000    -0.09261     0.00000     0.16657
          21    -0.48524    -0.46549    -0.36211     0.00000     0.16075    -0.00000
          22     0.00000    -0.00000    -0.00000    -0.05322     0.00000    -0.15397
          23     0.00000     0.00000    -0.00000    -0.13456     0.00000     0.01475
          24    -0.39518     0.15290     0.46490    -0.00000    -0.43303     0.00000
          25     0.00000    -0.00000    -0.00000    -0.00740     0.00000     0.00974
          26     0.00000    -0.00000     0.00000     0.11760    -0.00000    -0.15580
          27    -0.00003     0.50213     0.00021     0.00000     0.55571    -0.00000
          28     0.00000     0.00000    -0.00000     0.06969    -0.00000     0.15091
          29    -0.00000    -0.00000     0.00000    -0.12684     0.00000     0.03389
          30     0.39508     0.15319    -0.46495    -0.00000    -0.43291     0.00000
          31     0.00000    -0.00000     0.00000    -0.01754     0.00000     0.01893
          32     0.00000    -0.00000    -0.00000    -0.09555     0.00000     0.17043
          33     0.48534    -0.46553     0.36193    -0.00000     0.16059    -0.00000

                   19          20          21          22          23          24
 
 P.Frequency     1049.38     1071.14     1174.68     1174.89     1301.19     1323.47
 
           1    -0.00502     0.02420     0.00016     0.01531     0.01457    -0.15044
           2     0.07963     0.00155    -0.01127     0.00057     0.00092    -0.00948
           3     0.00000     0.00000     0.00000     0.00000    -0.00000    -0.00000
           4    -0.12276    -0.03719    -0.01786    -0.01530     0.02879     0.03775
           5    -0.00144     0.08867    -0.04154     0.00137     0.10890     0.03596
           6    -0.00000    -0.00000    -0.00000    -0.00000     0.00000     0.00000
           7     0.05676    -0.03610    -0.03946    -0.03583     0.02028     0.07108
           8    -0.01356    -0.07127     0.04307     0.03033    -0.07019    -0.07122
           9    -0.00000     0.00000    -0.00000    -0.00000     0.00000     0.00000
          10    -0.00144     0.05726    -0.00222     0.07358    -0.08939    -0.05221
          11     0.02270     0.00358    -0.00652     0.00440    -0.00564    -0.00329
          12    -0.00000     0.00000     0.00000    -0.00000    -0.00000     0.00000
          13    -0.05460    -0.04472     0.03592    -0.02928     0.01130     0.06157
          14    -0.02058     0.06617     0.05002    -0.03112     0.07219     0.07956
          15    -0.00000    -0.00000    -0.00000     0.00000     0.00000    -0.00000
          16     0.12198    -0.02571     0.02395    -0.01334     0.04223     0.04197
          17     0.01401    -0.09261    -0.03864    -0.00602    -0.10442    -0.03093
          18     0.00000    -0.00000    -0.00000     0.00000    -0.00000     0.00000
          19    -0.26376     0.10124    -0.19220    -0.08683    -0.23124     0.12363
          20    -0.27218     0.37504    -0.38923    -0.13972    -0.40121     0.20648
          21    -0.00000     0.00000    -0.00000    -0.00000    -0.00000    -0.00000
          22     0.19876     0.07233    -0.26835    -0.25667     0.03286    -0.18237
          23    -0.22726    -0.24253     0.38451     0.35903    -0.09423     0.31379
          24     0.00000    -0.00000    -0.00000     0.00000    -0.00000    -0.00000
          25    -0.00164     0.37884    -0.02371     0.68134     0.12667    -0.06395
          26     0.02523     0.02384    -0.00843     0.04268     0.00798    -0.00403
          27    -0.00000    -0.00000    -0.00000     0.00000    -0.00000    -0.00000
          28    -0.16869     0.04136     0.23223    -0.19363     0.02073    -0.14156
          29    -0.25047     0.24969     0.44153    -0.35804     0.09753    -0.33422
          30     0.00000     0.00000     0.00000    -0.00000     0.00000     0.00000
          31     0.29583     0.14760     0.24625    -0.08647    -0.27977     0.14852
          32    -0.23687    -0.35938    -0.37011     0.10179     0.36902    -0.18925
          33    -0.00000    -0.00000    -0.00000     0.00000     0.00000    -0.00000

                   25          26          27          28          29          30
 
 P.Frequency     1464.22     1471.12     1569.96     1626.15     3157.13     3163.03
 
           1    -0.10655     0.00504     0.00242    -0.14301    -0.00005     0.00017
           2    -0.00679    -0.07870    -0.03811    -0.00901     0.00078     0.00001
           3    -0.00000    -0.00000     0.00000    -0.00000     0.00000     0.00000
           4     0.05021     0.08124     0.00488     0.08659    -0.02088    -0.02943
           5    -0.02547     0.09985     0.09457     0.04829     0.00967     0.01389
           6     0.00000     0.00000     0.00000     0.00000    -0.00000    -0.00000
           7     0.01609    -0.06026     0.06377    -0.08351     0.03881     0.03951
           8     0.07927     0.01148    -0.13356     0.02948     0.02544     0.02563
           9     0.00000    -0.00000     0.00000    -0.00000     0.00000     0.00000
          10    -0.12378     0.00250    -0.00542     0.14413     0.00207    -0.00226
          11    -0.00783    -0.03790     0.08583     0.00909    -0.03277    -0.00017
          12     0.00000     0.00000    -0.00000     0.00000    -0.00000    -0.00000
          13     0.02601     0.05830    -0.04650    -0.07915    -0.04177     0.04230
          14    -0.07659     0.01908    -0.14050    -0.03974     0.02041    -0.02041
          15    -0.00000    -0.00000    -0.00000     0.00000     0.00000    -0.00000
          16     0.04645    -0.09321    -0.01672     0.09197     0.01959    -0.02743
          17     0.03173     0.08881     0.09321    -0.03703     0.01228    -0.01746
          18     0.00000     0.00000     0.00000    -0.00000    -0.00000     0.00000
          19     0.09046    -0.13376    -0.06661     0.00665     0.24796     0.35085
          20     0.03627    -0.33347    -0.03317    -0.11375    -0.12306    -0.17426
          21     0.00000    -0.00000    -0.00000    -0.00000     0.00000     0.00000
          22     0.20403     0.10997    -0.15890    -0.00471    -0.45579    -0.45935
          23    -0.18283    -0.25673     0.20089    -0.10036    -0.30385    -0.30607
          24     0.00000     0.00000    -0.00000    -0.00000    -0.00000    -0.00000
          25     0.52163     0.00261    -0.00607    -0.17966    -0.02516     0.00316
          26     0.03283    -0.04867     0.09656    -0.01131     0.39926     0.00060
          27    -0.00000    -0.00000    -0.00000     0.00000     0.00000     0.00000
          28     0.17934    -0.07720     0.13244    -0.01725     0.49129    -0.49278
          29     0.20652    -0.26889     0.21926     0.09903    -0.24472     0.24531
          30    -0.00000    -0.00000    -0.00000     0.00000    -0.00000     0.00000
          31     0.09461     0.17441     0.07023    -0.00768    -0.23164     0.32587
          32    -0.02518    -0.31403    -0.02455     0.11369    -0.15393     0.21669
          33    -0.00000    -0.00000    -0.00000     0.00000     0.00000    -0.00000

                   31          32          33
 
 P.Frequency     3175.27     3177.02     3188.21
 
           1     0.00007    -0.00206     0.00005
           2    -0.00116    -0.00013    -0.00072
           3     0.00000    -0.00000    -0.00000
           4     0.04419     0.04228     0.01889
           5    -0.02219    -0.02277    -0.01107
           6     0.00000     0.00000     0.00000
           7     0.00644     0.02839     0.02978
           8     0.00717     0.02047     0.01801
           9     0.00000     0.00000     0.00000
          10     0.00270    -0.00298    -0.00398
          11    -0.04287    -0.00018     0.06312
          12    -0.00000    -0.00000     0.00000
          13    -0.00731     0.03075    -0.03184
          14     0.00632    -0.01675     0.01414
          15     0.00000    -0.00000     0.00000
          16    -0.04106     0.03905    -0.01735
          17    -0.02757     0.02787    -0.01336
          18     0.00000    -0.00000     0.00000
          19    -0.50533    -0.49107    -0.21435
          20     0.25386     0.24873     0.11023
          21    -0.00000    -0.00000    -0.00000
          22    -0.08496    -0.32267    -0.31623
          23    -0.06064    -0.21692    -0.20792
          24    -0.00000    -0.00000    -0.00000
          25    -0.03133     0.00429     0.04452
          26     0.49723     0.00014    -0.70669
          27     0.00000     0.00000    -0.00000
          28     0.09219    -0.34753     0.34014
          29    -0.04964     0.17479    -0.16675
          30    -0.00000     0.00000    -0.00000
          31     0.46956    -0.45557     0.19881
          32     0.31534    -0.30814     0.13626
          33    -0.00000     0.00000    -0.00000



 ----------------------------------------------------------------------------
 Normal Eigenvalue ||    Projected Derivative Dipole Moments (debye/angs)
  Mode   [cm**-1]  ||      [d/dqX]             [d/dqY]           [d/dqZ]
 ------ ---------- || ------------------ ------------------ -----------------
    1       -0.000 ||      -0.004              -0.000             0.000
    2       -0.000 ||       0.000               0.000            -0.047
    3       -0.000 ||       0.000              -0.000             0.032
    4        0.000 ||       0.000               0.000            -0.079
    5        0.000 ||       0.004               0.000            -0.000
    6        0.000 ||       0.066               0.004            -0.000
    7      399.535 ||       0.000               0.000            -0.000
    8      423.909 ||       0.000              -0.000             0.389
    9      598.923 ||       0.113               0.007            -0.000
   10      618.211 ||      -0.012               0.194             0.000
   11      673.615 ||       0.000              -0.000             0.765
   12      720.468 ||       0.000               0.000             1.283
   13      815.463 ||       0.000               0.000             0.000
   14      897.086 ||      -0.000              -0.000            -0.105
   15      977.282 ||       0.000               0.000            -0.000
   16      992.287 ||       0.010              -0.165            -0.000
   17     1006.593 ||      -0.000              -0.000             0.061
   18     1016.130 ||      -0.006               0.091            -0.000
   19     1049.377 ||       0.027              -0.437            -0.000
   20     1071.139 ||       0.291               0.018             0.000
   21     1174.683 ||       0.005              -0.042            -0.000
   22     1174.891 ||      -0.053              -0.005            -0.000
   23     1301.191 ||      -0.084              -0.005             0.000
   24     1323.466 ||       0.066               0.004            -0.000
   25     1464.220 ||       0.340               0.021            -0.000
   26     1471.122 ||      -0.026               0.421            -0.000
   27     1569.958 ||       0.010              -0.160            -0.000
   28     1626.147 ||      -0.209              -0.013             0.000
   29     3157.126 ||      -0.009               0.144             0.000
   30     3163.027 ||       0.290               0.018            -0.000
   31     3175.273 ||       0.019              -0.297             0.000
   32     3177.015 ||       0.656               0.041             0.000
   33     3188.210 ||      -0.029               0.455             0.000
 ----------------------------------------------------------------------------



  
  
 ----------------------------------------------------------------------------
 Normal Eigenvalue ||           Projected Infra Red Intensities
  Mode   [cm**-1]  || [atomic units] [(debye/angs)**2] [(KM/mol)] [arbitrary]
 ------ ---------- || -------------- ----------------- ---------- -----------
    1       -0.000 ||    0.000001           0.000         0.001       0.002
    2       -0.000 ||    0.000094           0.002         0.092       0.180
    3       -0.000 ||    0.000045           0.001         0.044       0.086
    4        0.000 ||    0.000269           0.006         0.262       0.513
    5        0.000 ||    0.000001           0.000         0.001       0.001
    6        0.000 ||    0.000191           0.004         0.186       0.365
    7      399.535 ||    0.000000           0.000         0.000       0.000
    8      423.909 ||    0.006546           0.151         6.381      12.498
    9      598.923 ||    0.000559           0.013         0.545       1.067
   10      618.211 ||    0.001643           0.038         1.601       3.136
   11      673.615 ||    0.025362           0.585        24.724      48.424
   12      720.468 ||    0.071357           1.646        69.563     136.242
   13      815.463 ||    0.000000           0.000         0.000       0.000
   14      897.086 ||    0.000476           0.011         0.464       0.909
   15      977.282 ||    0.000000           0.000         0.000       0.000
   16      992.287 ||    0.001180           0.027         1.150       2.252
   17     1006.593 ||    0.000160           0.004         0.156       0.305
   18     1016.130 ||    0.000361           0.008         0.352       0.689
   19     1049.377 ||    0.008297           0.191         8.088      15.841
   20     1071.139 ||    0.003691           0.085         3.599       7.048
   21     1174.683 ||    0.000078           0.002         0.076       0.149
   22     1174.891 ||    0.000125           0.003         0.122       0.239
   23     1301.191 ||    0.000309           0.007         0.301       0.589
   24     1323.466 ||    0.000189           0.004         0.184       0.361
   25     1464.220 ||    0.005024           0.116         4.897       9.592
   26     1471.122 ||    0.007716           0.178         7.522      14.733
   27     1569.958 ||    0.001115           0.026         1.087       2.129
   28     1626.147 ||    0.001897           0.044         1.849       3.622
   29     3157.126 ||    0.000902           0.021         0.880       1.723
   30     3163.027 ||    0.003656           0.084         3.565       6.981
   31     3175.273 ||    0.003836           0.089         3.740       7.325
   32     3177.015 ||    0.018732           0.432        18.261      35.764
   33     3188.210 ||    0.009026           0.208         8.799      17.234
 ----------------------------------------------------------------------------



 vib:animation  F

 Task  times  cpu:     1419.8s     wall:     1446.9s
 
 
                                NWChem Input Module
                                -------------------
 
 
 Summary of allocated global arrays
-----------------------------------
  No active global arrays



                         GA Statistics for process    0
                         ------------------------------

       create   destroy   get      put      acc     scatter   gather  read&inc
calls: 5189     5189     6.64e+05 1.20e+05 7.49e+05 2976        0      620     
number of processes/call 2.07e+00 6.34e+00 1.92e+00 0.00e+00 0.00e+00
bytes total:             1.69e+10 7.84e+08 2.72e+10 0.00e+00 0.00e+00 4.96e+03
bytes remote:            1.51e+10 3.07e+08 2.61e+10 -2.82e+04 0.00e+00 0.00e+00
Max memory consumed for GA by this process: 46075296 bytes
 
MA_summarize_allocated_blocks: starting scan ...
MA_summarize_allocated_blocks: scan completed: 0 heap blocks, 0 stack blocks
MA usage statistics:

	allocation statistics:
					      heap	     stack
					      ----	     -----
	current number of blocks	         0	         0
	maximum number of blocks	        24	        52
	current total bytes		         0	         0
	maximum total bytes		   1464488	 144741976
	maximum total K-bytes		      1465	    144742
	maximum total M-bytes		         2	       145
 
 
                                     CITATION
                                     --------
                Please cite the following reference when publishing
                           results obtained with NWChem:
 
                 M. Valiev, E.J. Bylaska, N. Govind, K. Kowalski,
              T.P. Straatsma, H.J.J. van Dam, D. Wang, J. Nieplocha,
                        E. Apra, T.L. Windus, W.A. de Jong
                 "NWChem: a comprehensive and scalable open-source
                  solution for large scale molecular simulations"
                      Comput. Phys. Commun. 181, 1477 (2010)
                           doi:10.1016/j.cpc.2010.04.018
 
                                      AUTHORS
                                      -------
          E. Apra, E. J. Bylaska, W. A. de Jong, N. Govind, K. Kowalski,
       T. P. Straatsma, M. Valiev, H. J. J. van Dam, D. Wang, T. L. Windus,
        J. Hammond, J. Autschbach, K. Bhaskaran-Nair, J. Brabec, K. Lopata,
    S. A. Fischer, S. Krishnamoorthy, M. Jacquelin, W. Ma, M. Klemm, O. Villa,
      Y. Chen, V. Anisimov, F. Aquino, S. Hirata, M. T. Hackler, V. Konjkov,
            D. Mejia-Rodriguez, T. Risthaus, M. Malagoli, A. Marenich,
   A. Otero-de-la-Roza, J. Mullin, P. Nichols, R. Peverati, J. Pittner, Y. Zhao,
        P.-D. Fan, A. Fonari, M. J. Williamson, R. J. Harrison, J. R. Rehr,
      M. Dupuis, D. Silverstein, D. M. A. Smith, J. Nieplocha, V. Tipparaju,
    M. Krishnan, B. E. Van Kuiken, A. Vazquez-Mayagoitia, L. Jensen, M. Swart,
      Q. Wu, T. Van Voorhis, A. A. Auer, M. Nooijen, L. D. Crosby, E. Brown,
      G. Cisneros, G. I. Fann, H. Fruchtl, J. Garza, K. Hirao, R. A. Kendall,
      J. A. Nichols, K. Tsemekhman, K. Wolinski, J. Anchell, D. E. Bernholdt,
      P. Borowski, T. Clark, D. Clerc, H. Dachsel, M. J. O. Deegan, K. Dyall,
    D. Elwood, E. Glendening, M. Gutowski, A. C. Hess, J. Jaffe, B. G. Johnson,
     J. Ju, R. Kobayashi, R. Kutteh, Z. Lin, R. Littlefield, X. Long, B. Meng,
      T. Nakajima, S. Niu, L. Pollack, M. Rosing, K. Glaesemann, G. Sandrone,
      M. Stave, H. Taylor, G. Thomas, J. H. van Lenthe, A. T. Wong, Z. Zhang.

 Total times  cpu:     1419.8s     wall:     1448.1s
