 argument  1 = /storage/home/j/jbb5516/phenylGeom.nw
 


============================== echo of input deck ==============================
echo
start

geometry
C         -1.51508        2.92777        0.00000
C         -2.68030        2.15344        0.00000
C         -2.59233        0.75717        0.00000
C         -1.33913        0.13522        0.00000
C         -0.17391        0.90954        0.00000
C         -0.26188        2.30582        0.00000
H         -3.64981        2.63460       -0.00000
H         -3.49377        0.15813        0.00000
H         -1.27107       -0.94498        0.00000
H          0.79560        0.42839        0.00000
H          0.63957        2.90486        0.00000
symmetry c1
end

basis spherical
 * library "aug-cc-pvtz"
end

dft
 direct
 mult 2
 iterations 500
 xc b3lyp
end
task dft optimize
================================================================================


                                         
                                         
 
 
              Northwest Computational Chemistry Package (NWChem) 6.8
              ------------------------------------------------------
 
 
                    Environmental Molecular Sciences Laboratory
                       Pacific Northwest National Laboratory
                                Richland, WA 99352
 
                              Copyright (c) 1994-2017
                       Pacific Northwest National Laboratory
                            Battelle Memorial Institute
 
             NWChem is an open-source computational chemistry package
                        distributed under the terms of the
                      Educational Community License (ECL) 2.0
             A copy of the license is included with this distribution
                              in the LICENSE.TXT file
 
                                  ACKNOWLEDGMENT
                                  --------------

            This software and its documentation were developed at the
            EMSL at Pacific Northwest National Laboratory, a multiprogram
            national laboratory, operated for the U.S. Department of Energy
            by Battelle under Contract Number DE-AC05-76RL01830. Support
            for this work was provided by the Department of Energy Office
            of Biological and Environmental Research, Office of Basic
            Energy Sciences, and the Office of Advanced Scientific Computing.


           Job information
           ---------------

    hostname        = comp-sc-0503.acib.production.int.aci.ics.psu.edu
    program         = /gpfs/group/lxj18/default/jeffprograms/nwchem-6.8.1/bin/LINUX64/nwchem
    date            = Sun Sep 20 00:28:37 2020

    compiled        = Wed_Oct_03_14:08:39_2018
    source          = /gpfs/group/lxj18/default/jeffprograms/nwchem-6.8.1
    nwchem branch   = 6.8.1
    nwchem revision = v6.8-143-gdb0d964
    ga revision     = 5.6.5
    use scalapack   = F
    input           = /storage/home/j/jbb5516/phenylGeom.nw
    prefix          = phenylGeom.
    data base       = ./phenylGeom.db
    status          = startup
    nproc           =       20
    time left       =     -1s



           Memory information
           ------------------

    heap     =   13107200 doubles =    100.0 Mbytes
    stack    =   13107197 doubles =    100.0 Mbytes
    global   =   26214400 doubles =    200.0 Mbytes (distinct from heap & stack)
    total    =   52428797 doubles =    400.0 Mbytes
    verify   = yes
    hardfail = no 


           Directory information
           ---------------------
 
  0 permanent = .
  0 scratch   = .
 
 
 
 
                                NWChem Input Module
                                -------------------
 
 

 Scaling coordinates for geometry "geometry" by  1.889725989
 (inverse scale =  0.529177249)

 Turning off AUTOSYM since
 SYMMETRY directive was detected!
 

          ------
          auto-z
          ------
 
 
                             Geometry "geometry" -> ""
                             -------------------------
 
 Output coordinates in angstroms (scale by  1.889725989 to convert to a.u.)
 
  No.       Tag          Charge          X              Y              Z
 ---- ---------------- ---------- -------------- -------------- --------------
    1 C                    6.0000    -0.09178098     1.45667829     0.00000000
    2 C                    6.0000    -1.25700098     0.68234829     0.00000000
    3 C                    6.0000    -1.16903098    -0.71392171     0.00000000
    4 C                    6.0000     0.08416902    -1.33587171     0.00000000
    5 C                    6.0000     1.24938902    -0.56155171     0.00000000
    6 C                    6.0000     1.16141902     0.83472829     0.00000000
    7 H                    1.0000    -2.22651098     1.16350829     0.00000000
    8 H                    1.0000    -2.07047098    -1.31296171     0.00000000
    9 H                    1.0000     0.15222902    -2.41607171     0.00000000
   10 H                    1.0000     2.21889902    -1.04270171     0.00000000
   11 H                    1.0000     2.06286902     1.43376829     0.00000000
 
      Atomic Mass 
      ----------- 
 
      C                 12.000000
      H                  1.007825
 

 Effective nuclear repulsion energy (a.u.)     193.6755127584

            Nuclear Dipole moment (a.u.) 
            ----------------------------
        X                 Y               Z
 ---------------- ---------------- ----------------
     0.0000000000     0.0000000000     0.0000000000
 


                                Z-matrix (autoz)
                                -------- 

 Units are Angstrom for bonds and degrees for angles
 
      Type          Name      I     J     K     L     M      Value
      ----------- --------  ----- ----- ----- ----- ----- ----------
    1 Stretch                  1     2                       1.39904
    2 Stretch                  1     6                       1.39905
    3 Stretch                  2     3                       1.39904
    4 Stretch                  2     7                       1.08234
    5 Stretch                  3     4                       1.39905
    6 Stretch                  3     8                       1.08233
    7 Stretch                  4     5                       1.39904
    8 Stretch                  4     9                       1.08234
    9 Stretch                  5     6                       1.39905
   10 Stretch                  5    10                       1.08234
   11 Stretch                  6    11                       1.08234
   12 Bend                     1     2     3               120.00037
   13 Bend                     1     2     7               119.99972
   14 Bend                     1     6     5               119.99977
   15 Bend                     1     6    11               120.00007
   16 Bend                     2     1     6               119.99983
   17 Bend                     2     3     4               119.99980
   18 Bend                     2     3     8               120.00042
   19 Bend                     3     2     7               119.99991
   20 Bend                     3     4     5               120.00017
   21 Bend                     3     4     9               119.99998
   22 Bend                     4     3     8               119.99978
   23 Bend                     4     5     6               120.00006
   24 Bend                     4     5    10               120.00053
   25 Bend                     5     4     9               119.99985
   26 Bend                     5     6    11               120.00016
   27 Bend                     6     5    10               119.99941
   28 Torsion                  1     2     3     4           0.00000
   29 Torsion                  1     2     3     8         180.00000
   30 Torsion                  1     6     5     4           0.00000
   31 Torsion                  1     6     5    10         180.00000
   32 Torsion                  2     1     6     5           0.00000
   33 Torsion                  2     1     6    11         180.00000
   34 Torsion                  2     3     4     5           0.00000
   35 Torsion                  2     3     4     9         180.00000
   36 Torsion                  3     2     1     6           0.00000
   37 Torsion                  3     4     5     6           0.00000
   38 Torsion                  3     4     5    10         180.00000
   39 Torsion                  4     3     2     7         180.00000
   40 Torsion                  4     5     6    11         180.00000
   41 Torsion                  5     4     3     8         180.00000
   42 Torsion                  6     1     2     7         180.00000
   43 Torsion                  6     5     4     9         180.00000
   44 Torsion                  7     2     3     8           0.00000
   45 Torsion                  8     3     4     9           0.00000
   46 Torsion                  9     4     5    10           0.00000
   47 Torsion                 10     5     6    11           0.00000
 
 
            XYZ format geometry
            -------------------
    11
 geometry
 C                    -0.09178098     1.45667829     0.00000000
 C                    -1.25700098     0.68234829     0.00000000
 C                    -1.16903098    -0.71392171     0.00000000
 C                     0.08416902    -1.33587171     0.00000000
 C                     1.24938902    -0.56155171     0.00000000
 C                     1.16141902     0.83472829     0.00000000
 H                    -2.22651098     1.16350829     0.00000000
 H                    -2.07047098    -1.31296171     0.00000000
 H                     0.15222902    -2.41607171     0.00000000
 H                     2.21889902    -1.04270171     0.00000000
 H                     2.06286902     1.43376829     0.00000000
 
 ==============================================================================
                                internuclear distances
 ------------------------------------------------------------------------------
       center one      |      center two      | atomic units |  angstroms
 ------------------------------------------------------------------------------
    2 C                |   1 C                |     2.64381  |     1.39904
    3 C                |   2 C                |     2.64380  |     1.39904
    4 C                |   3 C                |     2.64382  |     1.39905
    5 C                |   4 C                |     2.64380  |     1.39904
    6 C                |   1 C                |     2.64382  |     1.39905
    6 C                |   5 C                |     2.64382  |     1.39905
    7 H                |   2 C                |     2.04533  |     1.08234
    8 H                |   3 C                |     2.04531  |     1.08233
    9 H                |   4 C                |     2.04533  |     1.08234
   10 H                |   5 C                |     2.04532  |     1.08234
   11 H                |   6 C                |     2.04533  |     1.08234
 ------------------------------------------------------------------------------
                         number of included internuclear distances:         11
 ==============================================================================



 ==============================================================================
                                 internuclear angles
 ------------------------------------------------------------------------------
        center 1       |       center 2       |       center 3       |  degrees
 ------------------------------------------------------------------------------
    2 C                |   1 C                |   6 C                |   120.00
    1 C                |   2 C                |   3 C                |   120.00
    1 C                |   2 C                |   7 H                |   120.00
    3 C                |   2 C                |   7 H                |   120.00
    2 C                |   3 C                |   4 C                |   120.00
    2 C                |   3 C                |   8 H                |   120.00
    4 C                |   3 C                |   8 H                |   120.00
    3 C                |   4 C                |   5 C                |   120.00
    3 C                |   4 C                |   9 H                |   120.00
    5 C                |   4 C                |   9 H                |   120.00
    4 C                |   5 C                |   6 C                |   120.00
    4 C                |   5 C                |  10 H                |   120.00
    6 C                |   5 C                |  10 H                |   120.00
    1 C                |   6 C                |   5 C                |   120.00
    1 C                |   6 C                |  11 H                |   120.00
    5 C                |   6 C                |  11 H                |   120.00
 ------------------------------------------------------------------------------
                            number of included internuclear angles:         16
 ==============================================================================





 Summary of "ao basis" -> "" (spherical)
 ------------------------------------------------------------------------------
       Tag                 Description            Shells   Functions and Types
 ---------------- ------------------------------  ------  ---------------------
 *                        aug-cc-pvtz                 on all atoms 


 
 
                           NWChem Geometry Optimization
                           ----------------------------
 
 
 maximum gradient threshold         (gmax) =   0.000450
 rms gradient threshold             (grms) =   0.000300
 maximum cartesian step threshold   (xmax) =   0.001800
 rms cartesian step threshold       (xrms) =   0.001200
 fixed trust radius                (trust) =   0.300000
 maximum step size to saddle      (sadstp) =   0.100000
 energy precision                  (eprec) =   5.0D-06
 maximum number of steps          (nptopt) =   20
 initial hessian option           (inhess) =    0
 line search option               (linopt) =    1
 hessian update option            (modupd) =    1
 saddle point option              (modsad) =    0
 initial eigen-mode to follow     (moddir) =    0
 initial variable to follow       (vardir) =    0
 follow first negative mode     (firstneg) =    T
 apply conjugacy                    (opcg) =    F
 source of zmatrix                         =   autoz   


          -------------------
          Energy Minimization
          -------------------

 
 Names of Z-matrix variables 
    1              2              3              4              5         
    6              7              8              9             10         
   11             12             13             14             15         
   16             17             18             19             20         
   21             22             23             24             25         
   26             27             28             29             30         
   31             32             33             34             35         
   36             37             38             39             40         
   41             42             43             44             45         
   46             47         
 
 Variables with the same non-blank name are constrained to be equal
 
 
 Using diagonal initial Hessian 
 Scaling for Hessian diagonals: bonds = 1.00  angles = 0.25  torsions = 0.10

          --------
          Step   0
          --------
 
 
                         Geometry "geometry" -> "geometry"
                         ---------------------------------
 
 Output coordinates in angstroms (scale by  1.889725989 to convert to a.u.)
 
  No.       Tag          Charge          X              Y              Z
 ---- ---------------- ---------- -------------- -------------- --------------
    1 C                    6.0000    -0.09178098     1.45667829     0.00000000
    2 C                    6.0000    -1.25700098     0.68234829     0.00000000
    3 C                    6.0000    -1.16903098    -0.71392171     0.00000000
    4 C                    6.0000     0.08416902    -1.33587171     0.00000000
    5 C                    6.0000     1.24938902    -0.56155171     0.00000000
    6 C                    6.0000     1.16141902     0.83472829     0.00000000
    7 H                    1.0000    -2.22651098     1.16350829     0.00000000
    8 H                    1.0000    -2.07047098    -1.31296171     0.00000000
    9 H                    1.0000     0.15222902    -2.41607171     0.00000000
   10 H                    1.0000     2.21889902    -1.04270171     0.00000000
   11 H                    1.0000     2.06286902     1.43376829     0.00000000
 
      Atomic Mass 
      ----------- 
 
      C                 12.000000
      H                  1.007825
 

 Effective nuclear repulsion energy (a.u.)     193.6755127584

            Nuclear Dipole moment (a.u.) 
            ----------------------------
        X                 Y               Z
 ---------------- ---------------- ----------------
     0.0000000000     0.0000000000     0.0000000000
 
 
                                 NWChem DFT Module
                                 -----------------
 
 
                      Basis "ao basis" -> "ao basis" (spherical)
                      -----
  C (Carbon)
  ----------
            Exponent  Coefficients 
       -------------- ---------------------------------------------------------
  1 S  8.23600000E+03  0.000531
  1 S  1.23500000E+03  0.004108
  1 S  2.80800000E+02  0.021087
  1 S  7.92700000E+01  0.081853
  1 S  2.55900000E+01  0.234817
  1 S  8.99700000E+00  0.434401
  1 S  3.31900000E+00  0.346129
  1 S  3.64300000E-01 -0.008983
 
  2 S  8.23600000E+03 -0.000113
  2 S  1.23500000E+03 -0.000878
  2 S  2.80800000E+02 -0.004540
  2 S  7.92700000E+01 -0.018133
  2 S  2.55900000E+01 -0.055760
  2 S  8.99700000E+00 -0.126895
  2 S  3.31900000E+00 -0.170352
  2 S  3.64300000E-01  0.598684
 
  3 S  9.05900000E-01  1.000000
 
  4 S  1.28500000E-01  1.000000
 
  5 S  4.40200000E-02  1.000000
 
  6 P  1.87100000E+01  0.014031
  6 P  4.13300000E+00  0.086866
  6 P  1.20000000E+00  0.290216
 
  7 P  3.82700000E-01  1.000000
 
  8 P  1.20900000E-01  1.000000
 
  9 P  3.56900000E-02  1.000000
 
 10 D  1.09700000E+00  1.000000
 
 11 D  3.18000000E-01  1.000000
 
 12 D  1.00000000E-01  1.000000
 
 13 F  7.61000000E-01  1.000000
 
 14 F  2.68000000E-01  1.000000
 
  H (Hydrogen)
  ------------
            Exponent  Coefficients 
       -------------- ---------------------------------------------------------
  1 S  3.38700000E+01  0.006068
  1 S  5.09500000E+00  0.045308
  1 S  1.15900000E+00  0.202822
 
  2 S  3.25800000E-01  1.000000
 
  3 S  1.02700000E-01  1.000000
 
  4 S  2.52600000E-02  1.000000
 
  5 P  1.40700000E+00  1.000000
 
  6 P  3.88000000E-01  1.000000
 
  7 P  1.02000000E-01  1.000000
 
  8 D  1.05700000E+00  1.000000
 
  9 D  2.47000000E-01  1.000000
 


 Summary of "ao basis" -> "ao basis" (spherical)
 ------------------------------------------------------------------------------
       Tag                 Description            Shells   Functions and Types
 ---------------- ------------------------------  ------  ---------------------
 C                        aug-cc-pvtz               14       46   5s4p3d2f
 H                        aug-cc-pvtz                9       23   4s3p2d




 Summary of "ao basis" -> "ao basis" (spherical)
 ------------------------------------------------------------------------------
       Tag                 Description            Shells   Functions and Types
 ---------------- ------------------------------  ------  ---------------------
 C                        aug-cc-pvtz               14       46   5s4p3d2f
 H                        aug-cc-pvtz                9       23   4s3p2d


  Caching 1-el integrals 
 
            General Information
            -------------------
          SCF calculation type: DFT
          Wavefunction type:  spin polarized.
          No. of atoms     :    11
          No. of electrons :    41
           Alpha electrons :    21
            Beta electrons :    20
          Charge           :     0
          Spin multiplicity:     2
          Use of symmetry is: off; symmetry adaption is: off
          Maximum number of iterations: 500
          This is a Direct SCF calculation.
          AO basis - number of functions:   391
                     number of shells:   129
          Convergence on energy requested:  1.00D-06
          Convergence on density requested:  1.00D-05
          Convergence on gradient requested:  5.00D-04
 
              XC Information
              --------------
                         B3LYP Method XC Potential
                     Hartree-Fock (Exact) Exchange  0.200          
                        Slater Exchange Functional  0.800 local    
                    Becke 1988 Exchange Functional  0.720 non-local
              Lee-Yang-Parr Correlation Functional  0.810          
                  VWN I RPA Correlation Functional  0.190 local    
 
             Grid Information
             ----------------
          Grid used for XC integration:  medium    
          Radial quadrature: Mura-Knowles        
          Angular quadrature: Lebedev. 
          Tag              B.-S. Rad. Rad. Pts. Rad. Cut. Ang. Pts.
          ---              ---------- --------- --------- ---------
          C                   0.70       49          15.0       434
          H                   0.35       45          17.0       434
          Grid pruning is: on 
          Number of quadrature shells:   519
          Spatial weights used:  Erf1
 
          Convergence Information
          -----------------------
          Convergence aids based upon iterative change in 
          total energy or number of iterations. 
          Levelshifting, if invoked, occurs when the 
          HOMO/LUMO gap drops below (HL_TOL):  1.00D-02
          DIIS, if invoked, will attempt to extrapolate 
          using up to (NFOCK): 10 stored Fock matrices.

                    Damping( 0%)  Levelshifting(0.5)       DIIS
                  --------------- ------------------- ---------------
          dE  on:    start            ASAP                start   
          dE off:    2 iters        500 iters           500 iters 

 
      Screening Tolerance Information
      -------------------------------
          Density screening/tol_rho:  1.00D-10
          AO Gaussian exp screening on grid/accAOfunc:  14
          CD Gaussian exp screening on grid/accCDfunc:  20
          XC Gaussian exp screening on grid/accXCfunc:  20
          Schwarz screening/accCoul:  1.00D-08

 
 WARNING : Found     7 linear dependencies 
 S eigenvalue threshold:     1.00000E-05
 Smallest S eigenvalue :     1.65174E-06
 Largest  S eigenvalue :     7.95464E-06
 

 !! The overlap matrix has   7 vectors deemed linearly dependent with
    eigenvalues:
 1.65D-06 2.34D-06 2.99D-06 3.59D-06 6.00D-06 6.30D-06 7.95D-06
 
 
      Superposition of Atomic Density Guess
      -------------------------------------
 
 Sum of atomic energies:        -228.52307259
 
      Non-variational initial energy
      ------------------------------

 Total energy =    -232.525479
 1-e energy   =    -688.670802
 2-e energy   =     262.469810
 HOMO         =      -0.199746
 LUMO         =      -0.019092
 
   Time after variat. SCF:      9.6
   Time prior to 1st pass:      9.6

 Grid_pts file          = ./phenylGeom.gridpts.00
 Record size in doubles =  12289        No. of grid_pts per rec  =   3070
 Max. records in memory =      6        Max. recs in file   = 222514125

 Grid integrated density:      40.999753493454
 Requested integration accuracy:   0.10E-05

           Memory utilization after 1st SCF pass: 
           Heap Space remaining (MW):       12.96            12961280
          Stack Space remaining (MW):       13.10            13103676

   convergence    iter        energy       DeltaE   RMS-Dens  Diis-err    time
 ---------------- ----- ----------------- --------- --------- ---------  ------
 d= 0,ls=0.0,diis     1   -231.5731984744 -4.25D+02  5.99D-02  2.11D-01    19.4
                                                     7.33D-02  1.95D-01
 d= 0,ls=0.0,diis     2   -231.6357335573 -6.25D-02  5.89D-02  1.26D-02    29.3
                                                     7.21D-02  1.43D-02
 d= 0,ls=0.0,diis     3   -231.6399229124 -4.19D-03  1.30D-03  6.04D-03    39.3
                                                     1.46D-03  4.79D-03
 d= 0,ls=0.0,diis     4   -231.6413949975 -1.47D-03  2.45D-04  2.33D-03    49.4
                                                     2.77D-04  2.57D-03
 d= 0,ls=0.0,diis     5   -231.6427450481 -1.35D-03  2.96D-05  1.68D-04    59.4
                                                     2.16D-05  1.63D-04
  Resetting Diis
 d= 0,ls=0.0,diis     6   -231.6428341912 -8.91D-05  1.97D-05  3.72D-05    69.5
                                                     1.90D-05  2.52D-05
 d= 0,ls=0.0,diis     7   -231.6428549877 -2.08D-05  8.26D-06  1.30D-06    79.6
                                                     8.51D-06  2.24D-06
 d= 0,ls=0.0,diis     8   -231.6428599152 -4.93D-06  3.17D-06  1.54D-06    89.7
                                                     1.97D-06  6.24D-07
 d= 0,ls=0.0,diis     9   -231.6428615574 -1.64D-06  5.09D-06  4.54D-07    99.8
                                                     5.14D-06  9.79D-07
 d= 0,ls=0.0,diis    10   -231.6428636301 -2.07D-06  1.33D-06  2.04D-07   109.9
                                                     1.65D-06  2.18D-07
 d= 0,ls=0.0,diis    11   -231.6428639037 -2.74D-07  8.39D-07  4.71D-08   120.0
                                                     7.05D-07  3.55D-08


         Total DFT energy =     -231.642863903652
      One electron energy =     -693.801781106440
           Coulomb energy =      302.852225852668
    Exchange-Corr. energy =      -34.368821408278
 Nuclear repulsion energy =      193.675512758398

 Numeric. integr. density =       40.999977803312

     Total iterative time =    110.4s


 
                    DFT Final Alpha Molecular Orbital Analysis
                    ------------------------------------------
 
 Vector    1  Occ=1.000000D+00  E=-1.021596D+01
              MO Center= -9.2D-02,  1.5D+00, -2.7D-17, r^2= 2.9D-02
   Bfn.  Coefficient  Atom+Function         Bfn.  Coefficient  Atom+Function  
  ----- ------------  ---------------      ----- ------------  ---------------
     1      0.983867   1 C  s                 3      0.057727   1 C  s         
    50     -0.042504   2 C  s               234     -0.042504   6 C  s         
   143      0.040081   4 C  s               142      0.039826   4 C  s         
   279      0.035562   7 H  s               371      0.035563  11 H  s         
    51     -0.032214   2 C  s               235     -0.032215   6 C  s         
 
 Vector    2  Occ=1.000000D+00  E=-1.019356D+01
              MO Center=  9.2D-03,  4.5D-01, -5.7D-17, r^2= 1.8D+00
   Bfn.  Coefficient  Atom+Function         Bfn.  Coefficient  Atom+Function  
  ----- ------------  ---------------      ----- ------------  ---------------
   231     -0.625884   6 C  s                47      0.606463   2 C  s         
   185     -0.333960   5 C  s                93      0.324245   3 C  s         
    97     -0.065691   3 C  s               189      0.065774   5 C  s         
   371     -0.062505  11 H  s               279      0.061621   7 H  s         
   348     -0.048499  10 H  s               302      0.047777   8 H  s         
 
 Vector    3  Occ=1.000000D+00  E=-1.019354D+01
              MO Center= -6.6D-02,  4.6D-01, -9.2D-18, r^2= 1.8D+00
   Bfn.  Coefficient  Atom+Function         Bfn.  Coefficient  Atom+Function  
  ----- ------------  ---------------      ----- ------------  ---------------
    47      0.627050   2 C  s               231      0.608013   6 C  s         
    93      0.327651   3 C  s               185      0.317076   5 C  s         
   142     -0.083395   4 C  s                49      0.036999   2 C  s         
   233      0.035828   6 C  s               139      0.034817   4 C  s         
     4     -0.033995   1 C  s                58      0.029409   2 C  px        
 
 Vector    4  Occ=1.000000D+00  E=-1.019287D+01
              MO Center=  2.5D-02, -3.4D-01, -6.6D-17, r^2= 1.8D+00
   Bfn.  Coefficient  Atom+Function         Bfn.  Coefficient  Atom+Function  
  ----- ------------  ---------------      ----- ------------  ---------------
    93      0.615213   3 C  s               185      0.617386   5 C  s         
    47     -0.323104   2 C  s               231     -0.323829   6 C  s         
   139      0.068490   4 C  s               325      0.065897   9 H  s         
   143     -0.057777   4 C  s               279     -0.042225   7 H  s         
   371     -0.042146  11 H  s               142     -0.040130   4 C  s         
 
 Vector    5  Occ=1.000000D+00  E=-1.019281D+01
              MO Center=  1.7D-02, -3.3D-01, -2.2D-17, r^2= 1.8D+00
   Bfn.  Coefficient  Atom+Function         Bfn.  Coefficient  Atom+Function  
  ----- ------------  ---------------      ----- ------------  ---------------
    93      0.614994   3 C  s               185     -0.613157   5 C  s         
    47     -0.325550   2 C  s               231      0.324179   6 C  s         
    50     -0.052012   2 C  s               234      0.052007   6 C  s         
    51     -0.036682   2 C  s               235      0.036766   6 C  s         
    95      0.033861   3 C  s               187     -0.033753   5 C  s         
 
 Vector    6  Occ=1.000000D+00  E=-1.018747D+01
              MO Center=  8.4D-02, -1.3D+00, -5.8D-17, r^2= 3.9D-02
   Bfn.  Coefficient  Atom+Function         Bfn.  Coefficient  Atom+Function  
  ----- ------------  ---------------      ----- ------------  ---------------
   139      0.982998   4 C  s               141      0.057394   4 C  s         
    93     -0.051272   3 C  s               185     -0.051275   5 C  s         
   325      0.043045   9 H  s                96     -0.040617   3 C  s         
   188     -0.040620   5 C  s               143     -0.040345   4 C  s         
     4      0.037798   1 C  s               151      0.031970   4 C  py        
 
 Vector    7  Occ=1.000000D+00  E=-8.663443D-01
              MO Center= -3.9D-03,  6.2D-02, -1.4D-14, r^2= 2.0D+00
   Bfn.  Coefficient  Atom+Function         Bfn.  Coefficient  Atom+Function  
  ----- ------------  ---------------      ----- ------------  ---------------
     2      0.201296   1 C  s                48      0.201874   2 C  s         
   232      0.201870   6 C  s                94      0.199584   3 C  s         
   186      0.199581   5 C  s               140      0.193349   4 C  s         
   142      0.100861   4 C  s                96      0.098418   3 C  s         
   188      0.098418   5 C  s                50      0.080124   2 C  s         
 
 Vector    8  Occ=1.000000D+00  E=-7.593266D-01
              MO Center= -3.8D-03,  6.0D-02, -1.0D-14, r^2= 2.9D+00
   Bfn.  Coefficient  Atom+Function         Bfn.  Coefficient  Atom+Function  
  ----- ------------  ---------------      ----- ------------  ---------------
    48      0.246781   2 C  s                94      0.247751   3 C  s         
   186     -0.247765   5 C  s               232     -0.246767   6 C  s         
    50      0.142781   2 C  s               234     -0.142781   6 C  s         
   279     -0.128031   7 H  s               371      0.128027  11 H  s         
   150     -0.117348   4 C  px               97      0.101799   3 C  s         
 
 Vector    9  Occ=1.000000D+00  E=-7.525948D-01
              MO Center=  5.3D-03, -8.4D-02, -1.4D-14, r^2= 2.7D+00
   Bfn.  Coefficient  Atom+Function         Bfn.  Coefficient  Atom+Function  
  ----- ------------  ---------------      ----- ------------  ---------------
   140     -0.293819   4 C  s                 2      0.281242   1 C  s         
    48      0.150878   2 C  s               232      0.150904   6 C  s         
    94     -0.144749   3 C  s               186     -0.144726   5 C  s         
   142     -0.143928   4 C  s                 4      0.107289   1 C  s         
    96     -0.094674   3 C  s               188     -0.094669   5 C  s         
 
 Vector   10  Occ=1.000000D+00  E=-6.151544D-01
              MO Center= -4.2D-03,  6.6D-02, -7.3D-15, r^2= 3.6D+00
   Bfn.  Coefficient  Atom+Function         Bfn.  Coefficient  Atom+Function  
  ----- ------------  ---------------      ----- ------------  ---------------
    48      0.203376   2 C  s                94     -0.203125   3 C  s         
   186      0.203105   5 C  s               232     -0.203390   6 C  s         
    50      0.183531   2 C  s               234     -0.183550   6 C  s         
    96     -0.139725   3 C  s               188      0.139702   5 C  s         
     6     -0.121823   1 C  px              144      0.115422   4 C  px        
 
 Vector   11  Occ=1.000000D+00  E=-6.054660D-01
              MO Center=  6.8D-03, -1.1D-01, -6.8D-15, r^2= 3.4D+00
   Bfn.  Coefficient  Atom+Function         Bfn.  Coefficient  Atom+Function  
  ----- ------------  ---------------      ----- ------------  ---------------
   142      0.253230   4 C  s                 2      0.241896   1 C  s         
   140      0.226101   4 C  s                 4      0.213470   1 C  s         
    94     -0.135778   3 C  s               186     -0.135809   5 C  s         
    50     -0.116803   2 C  s               234     -0.116781   6 C  s         
    96     -0.111376   3 C  s               188     -0.111403   5 C  s         
 
 Vector   12  Occ=1.000000D+00  E=-5.254109D-01
              MO Center=  1.4D-02, -2.3D-01, -4.4D-15, r^2= 4.0D+00
   Bfn.  Coefficient  Atom+Function         Bfn.  Coefficient  Atom+Function  
  ----- ------------  ---------------      ----- ------------  ---------------
   148      0.160969   4 C  py              145      0.141396   4 C  py        
   324     -0.124454   9 H  s                55      0.108590   2 C  px        
   193     -0.104301   5 C  px              323     -0.099153   9 H  s         
   240     -0.098304   6 C  py              239     -0.097017   6 C  px        
   101      0.094699   3 C  px              278     -0.091361   7 H  s         
 
 Vector   13  Occ=1.000000D+00  E=-4.633409D-01
              MO Center=  9.8D-03, -1.6D-01, -4.5D-15, r^2= 4.8D+00
   Bfn.  Coefficient  Atom+Function         Bfn.  Coefficient  Atom+Function  
  ----- ------------  ---------------      ----- ------------  ---------------
     2      0.177196   1 C  s               301      0.135305   8 H  s         
   347      0.135294  10 H  s               140     -0.131882   4 C  s         
   196      0.123017   5 C  px              104     -0.120673   3 C  px        
   193      0.121269   5 C  px               96      0.117887   3 C  s         
   188      0.117880   5 C  s               190      0.112909   5 C  px        
 
 Vector   14  Occ=1.000000D+00  E=-4.608619D-01
              MO Center= -4.0D-03,  6.6D-02, -3.3D-15, r^2= 2.7D+00
   Bfn.  Coefficient  Atom+Function         Bfn.  Coefficient  Atom+Function  
  ----- ------------  ---------------      ----- ------------  ---------------
     9      0.187292   1 C  px              147      0.175190   4 C  px        
     6      0.164884   1 C  px              194     -0.159123   5 C  py        
    56     -0.157943   2 C  py              144      0.157458   4 C  px        
   102      0.148053   3 C  py              240      0.146197   6 C  py        
   191     -0.143290   5 C  py               53     -0.141803   2 C  py        
 
 Vector   15  Occ=1.000000D+00  E=-4.357594D-01
              MO Center= -5.4D-03,  8.6D-02, -3.0D-15, r^2= 4.0D+00
   Bfn.  Coefficient  Atom+Function         Bfn.  Coefficient  Atom+Function  
  ----- ------------  ---------------      ----- ------------  ---------------
    55      0.142443   2 C  px              193      0.140737   5 C  px        
   239      0.129248   6 C  px              278     -0.129113   7 H  s         
   370      0.129102  11 H  s               101      0.127934   3 C  px        
   301     -0.126094   8 H  s               347      0.126104  10 H  s         
    52      0.124179   2 C  px              190      0.120742   5 C  px        
 
 Vector   16  Occ=1.000000D+00  E=-4.001616D-01
              MO Center=  4.5D-02, -7.1D-01, -5.8D-15, r^2= 3.4D+00
   Bfn.  Coefficient  Atom+Function         Bfn.  Coefficient  Atom+Function  
  ----- ------------  ---------------      ----- ------------  ---------------
   148      0.234044   4 C  py              145      0.208156   4 C  py        
   324     -0.195550   9 H  s               151      0.173046   4 C  py        
   323     -0.150892   9 H  s                10      0.142632   1 C  py        
    13      0.120832   1 C  py              240      0.112415   6 C  py        
     7      0.111543   1 C  py               56      0.105040   2 C  py        
 
 Vector   17  Occ=1.000000D+00  E=-3.798209D-01
              MO Center= -5.8D-03,  9.1D-02,  3.8D-15, r^2= 2.8D+00
   Bfn.  Coefficient  Atom+Function         Bfn.  Coefficient  Atom+Function  
  ----- ------------  ---------------      ----- ------------  ---------------
    11      0.167982   1 C  pz               57      0.155309   2 C  pz        
   103      0.154916   3 C  pz              195      0.154914   5 C  pz        
   241      0.155307   6 C  pz              149      0.149093   4 C  pz        
     8      0.132232   1 C  pz               54      0.124645   2 C  pz        
   238      0.124643   6 C  pz              100      0.123726   3 C  pz        
 
 Vector   18  Occ=1.000000D+00  E=-3.594954D-01
              MO Center= -1.1D-03,  1.6D-02, -2.8D-15, r^2= 4.1D+00
   Bfn.  Coefficient  Atom+Function         Bfn.  Coefficient  Atom+Function  
  ----- ------------  ---------------      ----- ------------  ---------------
   147      0.167152   4 C  px                9     -0.164533   1 C  px        
   144      0.154755   4 C  px              101     -0.153425   3 C  px        
   193     -0.152230   5 C  px                6     -0.150116   1 C  px        
   239      0.145106   6 C  px               55      0.144192   2 C  px        
    98     -0.138365   3 C  px              190     -0.136920   5 C  px        
 
 Vector   19  Occ=1.000000D+00  E=-2.675848D-01
              MO Center= -2.9D-03,  4.7D-02,  2.4D-14, r^2= 3.1D+00
   Bfn.  Coefficient  Atom+Function         Bfn.  Coefficient  Atom+Function  
  ----- ------------  ---------------      ----- ------------  ---------------
    11      0.251831   1 C  pz              149     -0.234053   4 C  pz        
     8      0.197672   1 C  pz               14      0.188074   1 C  pz        
   146     -0.187103   4 C  pz              152     -0.173032   4 C  pz        
   103     -0.123391   3 C  pz              195     -0.123644   5 C  pz        
    57      0.114064   2 C  pz              241      0.113821   6 C  pz        
 
 Vector   20  Occ=1.000000D+00  E=-2.669016D-01
              MO Center= -2.8D-03,  4.3D-02, -5.6D-16, r^2= 3.1D+00
   Bfn.  Coefficient  Atom+Function         Bfn.  Coefficient  Atom+Function  
  ----- ------------  ---------------      ----- ------------  ---------------
   103      0.208959   3 C  pz              195     -0.208811   5 C  pz        
    57      0.202776   2 C  pz              241     -0.202914   6 C  pz        
   100      0.166528   3 C  pz              192     -0.166409   5 C  pz        
    54      0.162356   2 C  pz              238     -0.162466   6 C  pz        
   106      0.151855   3 C  pz              198     -0.151753   5 C  pz        
 
 Vector   21  Occ=1.000000D+00  E=-2.661793D-01
              MO Center= -8.4D-02,  1.3D+00, -2.7D-14, r^2= 2.4D+00
   Bfn.  Coefficient  Atom+Function         Bfn.  Coefficient  Atom+Function  
  ----- ------------  ---------------      ----- ------------  ---------------
    10      0.377817   1 C  py                4      0.313895   1 C  s         
     5      0.312278   1 C  s                13      0.311114   1 C  py        
     7      0.292904   1 C  py                2      0.159849   1 C  s         
   243     -0.125159   6 C  py               59     -0.122873   2 C  py        
   102      0.112854   3 C  py              143      0.112374   4 C  s         
 
 Vector   22  Occ=0.000000D+00  E=-2.537049D-02
              MO Center=  5.7D-04, -7.1D-03, -1.5D-14, r^2= 4.2D+00
   Bfn.  Coefficient  Atom+Function         Bfn.  Coefficient  Atom+Function  
  ----- ------------  ---------------      ----- ------------  ---------------
   155      0.397884   4 C  pz               17      0.327597   1 C  pz        
    11      0.264080   1 C  pz              152      0.263069   4 C  pz        
   149      0.251346   4 C  pz               14      0.246035   1 C  pz        
     8      0.204302   1 C  pz              109     -0.198322   3 C  pz        
   146      0.198806   4 C  pz              201     -0.197117   5 C  pz        
 
 Vector   23  Occ=0.000000D+00  E=-2.501145D-02
              MO Center= -4.5D-03,  6.9D-02, -1.5D-14, r^2= 4.3D+00
   Bfn.  Coefficient  Atom+Function         Bfn.  Coefficient  Atom+Function  
  ----- ------------  ---------------      ----- ------------  ---------------
   109     -0.324043   3 C  pz              201      0.324788   5 C  pz        
    63      0.322404   2 C  pz              247     -0.321759   6 C  pz        
    60      0.226302   2 C  pz              244     -0.225836   6 C  pz        
   106     -0.221844   3 C  pz              198      0.222297   5 C  pz        
    57      0.220010   2 C  pz              241     -0.219540   6 C  pz        
 
 Vector   24  Occ=0.000000D+00  E=-1.016869D-02
              MO Center=  6.6D-02, -1.0D+00, -1.7D-13, r^2= 2.0D+01
   Bfn.  Coefficient  Atom+Function         Bfn.  Coefficient  Atom+Function  
  ----- ------------  ---------------      ----- ------------  ---------------
     5      1.346119   1 C  s               279     -1.023875   7 H  s         
   371     -1.023870  11 H  s               326     -0.778813   9 H  s         
   303     -0.726159   8 H  s               349     -0.726171  10 H  s         
   302     -0.641921   8 H  s               348     -0.641904  10 H  s         
    51      0.584787   2 C  s               235      0.584734   6 C  s         
 
 Vector   25  Occ=0.000000D+00  E= 4.532187D-03
              MO Center=  1.9D-02, -3.0D-01, -7.1D-14, r^2= 2.6D+01
   Bfn.  Coefficient  Atom+Function         Bfn.  Coefficient  Atom+Function  
  ----- ------------  ---------------      ----- ------------  ---------------
    97      2.565303   3 C  s               189     -2.565284   5 C  s         
    51      2.463194   2 C  s               235     -2.463208   6 C  s         
   303      1.981470   8 H  s               349     -1.981464  10 H  s         
    15      1.761897   1 C  px              153      1.683303   4 C  px        
   280      1.513944   7 H  s               372     -1.513944  11 H  s         
 
 Vector   26  Occ=0.000000D+00  E= 8.818910D-03
              MO Center=  1.5D-03, -2.4D-02, -8.5D-14, r^2= 2.7D+01
   Bfn.  Coefficient  Atom+Function         Bfn.  Coefficient  Atom+Function  
  ----- ------------  ---------------      ----- ------------  ---------------
   143      5.964352   4 C  s                51     -3.894814   2 C  s         
   235     -3.894834   6 C  s               326      2.922690   9 H  s         
     5      2.540118   1 C  s               280     -2.378249   7 H  s         
   372     -2.378265  11 H  s               154      1.950588   4 C  py        
   246      1.838720   6 C  py               62      1.731811   2 C  py        
 
 Vector   27  Occ=0.000000D+00  E= 2.657572D-02
              MO Center= -1.7D-02,  2.6D-01, -5.2D-14, r^2= 3.1D+01
   Bfn.  Coefficient  Atom+Function         Bfn.  Coefficient  Atom+Function  
  ----- ------------  ---------------      ----- ------------  ---------------
   280      3.925017   7 H  s               372     -3.925040  11 H  s         
   303     -3.534410   8 H  s               349      3.534450  10 H  s         
    51      3.483804   2 C  s               235     -3.483852   6 C  s         
    61      2.445187   2 C  px              245      2.324322   6 C  px        
   199     -2.206928   5 C  px              107     -2.060539   3 C  px        
 
 Vector   28  Occ=0.000000D+00  E= 3.204167D-02
              MO Center=  3.6D-02, -5.6D-01, -6.5D-14, r^2= 2.9D+01
   Bfn.  Coefficient  Atom+Function         Bfn.  Coefficient  Atom+Function  
  ----- ------------  ---------------      ----- ------------  ---------------
     5      6.513766   1 C  s               326     -4.878074   9 H  s         
   303      3.678146   8 H  s               349      3.678083  10 H  s         
    97     -2.140807   3 C  s               189     -2.140897   5 C  s         
   154     -2.081504   4 C  py              245      1.674186   6 C  px        
   199     -1.632176   5 C  px               61     -1.619828   2 C  px        
 
 Vector   29  Occ=0.000000D+00  E= 4.368765D-02
              MO Center=  1.6D-02, -2.6D-01, -7.4D-13, r^2= 1.3D+01
   Bfn.  Coefficient  Atom+Function         Bfn.  Coefficient  Atom+Function  
  ----- ------------  ---------------      ----- ------------  ---------------
   155      0.333293   4 C  pz              109      0.256939   3 C  pz        
   201      0.256934   5 C  pz               63      0.233430   2 C  pz        
   247      0.233432   6 C  pz               60     -0.133824   2 C  pz        
   244     -0.133828   6 C  pz               17      0.094091   1 C  pz        
   259      0.090370   6 C  d -1             75      0.082839   2 C  d -1      
 
 Vector   30  Occ=0.000000D+00  E= 5.551623D-02
              MO Center=  1.3D-02, -2.1D-01,  8.2D-13, r^2= 1.4D+01
   Bfn.  Coefficient  Atom+Function         Bfn.  Coefficient  Atom+Function  
  ----- ------------  ---------------      ----- ------------  ---------------
     5      8.226912   1 C  s               143      2.507776   4 C  s         
   303     -2.509977   8 H  s               349     -2.509956  10 H  s         
    51     -2.432691   2 C  s               235     -2.432671   6 C  s         
   199      1.522824   5 C  px               96      1.480223   3 C  s         
   188      1.480220   5 C  s                97     -1.419701   3 C  s         
 
 Vector   31  Occ=0.000000D+00  E= 6.248952D-02
              MO Center= -4.1D-02,  6.6D-01, -4.6D-14, r^2= 2.9D+01
   Bfn.  Coefficient  Atom+Function         Bfn.  Coefficient  Atom+Function  
  ----- ------------  ---------------      ----- ------------  ---------------
     5     23.608359   1 C  s                51    -10.454307   2 C  s         
   235    -10.454391   6 C  s               143      8.160585   4 C  s         
   326      5.998668   9 H  s                97     -5.915718   3 C  s         
   189     -5.915507   5 C  s               154      4.816174   4 C  py        
   303     -4.759101   8 H  s               349     -4.759051  10 H  s         
 
 Vector   32  Occ=0.000000D+00  E= 6.604282D-02
              MO Center=  3.4D-03, -5.4D-02, -2.8D-13, r^2= 1.8D+01
   Bfn.  Coefficient  Atom+Function         Bfn.  Coefficient  Atom+Function  
  ----- ------------  ---------------      ----- ------------  ---------------
   109      0.997501   3 C  pz              201     -0.997488   5 C  pz        
   169     -0.751250   4 C  d  1             63      0.742877   2 C  pz        
   247     -0.742886   6 C  pz              106      0.495887   3 C  pz        
   198     -0.495904   5 C  pz               31     -0.438655   1 C  d  1      
    60      0.409325   2 C  pz              244     -0.409312   6 C  pz        
 
 Vector   33  Occ=0.000000D+00  E= 6.820389D-02
              MO Center= -1.5D-02,  2.4D-01, -3.9D-13, r^2= 1.8D+01
   Bfn.  Coefficient  Atom+Function         Bfn.  Coefficient  Atom+Function  
  ----- ------------  ---------------      ----- ------------  ---------------
   155      0.946034   4 C  pz               63     -0.796425   2 C  pz        
   247     -0.796438   6 C  pz               17     -0.696168   1 C  pz        
    14     -0.666152   1 C  pz              152      0.634576   4 C  pz        
   109      0.596217   3 C  pz              201      0.596203   5 C  pz        
   213      0.443421   5 C  d -1            261      0.420712   6 C  d  1      
 
 Vector   34  Occ=0.000000D+00  E= 7.710820D-02
              MO Center=  1.7D-02, -2.7D-01,  6.1D-14, r^2= 3.4D+01
   Bfn.  Coefficient  Atom+Function         Bfn.  Coefficient  Atom+Function  
  ----- ------------  ---------------      ----- ------------  ---------------
    51     12.391954   2 C  s               235    -12.390745   6 C  s         
    97     12.167196   3 C  s               189    -12.167092   5 C  s         
    15      7.373722   1 C  px              153      7.130080   4 C  px        
   303      4.780063   8 H  s               349     -4.780272  10 H  s         
   107      4.433596   3 C  px              245      4.301005   6 C  px        
 
 Vector   35  Occ=0.000000D+00  E= 7.800687D-02
              MO Center=  2.0D-01, -3.2D+00,  1.1D-13, r^2= 2.0D+01
   Bfn.  Coefficient  Atom+Function         Bfn.  Coefficient  Atom+Function  
  ----- ------------  ---------------      ----- ------------  ---------------
   143     16.541799   4 C  s                51    -12.653362   2 C  s         
   235    -12.654685   6 C  s               326      6.845129   9 H  s         
   246      5.240558   6 C  py               62      5.209508   2 C  py        
   154      5.150830   4 C  py              200      5.045348   5 C  py        
   108      4.725214   3 C  py              279      4.150498   7 H  s         
 
 Vector   36  Occ=0.000000D+00  E= 8.203881D-02
              MO Center= -8.6D-02,  1.4D+00,  1.5D-13, r^2= 2.8D+01
   Bfn.  Coefficient  Atom+Function         Bfn.  Coefficient  Atom+Function  
  ----- ------------  ---------------      ----- ------------  ---------------
   143     20.656439   4 C  s                51     -8.976366   2 C  s         
   235     -8.976102   6 C  s               246      5.362728   6 C  py        
    62      5.285614   2 C  py              325     -5.130791   9 H  s         
   326      4.634179   9 H  s               280     -4.599683   7 H  s         
   372     -4.599568  11 H  s                97      4.566187   3 C  s         
 
 Vector   37  Occ=0.000000D+00  E= 8.290643D-02
              MO Center=  3.9D-02, -6.2D-01, -9.7D-15, r^2= 2.2D+01
   Bfn.  Coefficient  Atom+Function         Bfn.  Coefficient  Atom+Function  
  ----- ------------  ---------------      ----- ------------  ---------------
    97      4.007545   3 C  s               189     -4.007603   5 C  s         
    51     -3.355485   2 C  s               235      3.355669   6 C  s         
   153      2.819206   4 C  px              303      2.475317   8 H  s         
   349     -2.475295  10 H  s               108      2.262265   3 C  py        
   200     -2.151431   5 C  py               96      1.945135   3 C  s         
 
 Vector   38  Occ=0.000000D+00  E= 9.496109D-02
              MO Center= -5.5D-02,  8.7D-01, -4.2D-14, r^2= 3.1D+01
   Bfn.  Coefficient  Atom+Function         Bfn.  Coefficient  Atom+Function  
  ----- ------------  ---------------      ----- ------------  ---------------
    51     16.609585   2 C  s               235    -16.609817   6 C  s         
   280      7.206871   7 H  s               372     -7.206929  11 H  s         
   303     -6.125897   8 H  s               349      6.125955  10 H  s         
    97     -6.073170   3 C  s               189      6.073310   5 C  s         
    15      5.844003   1 C  px               61      5.781741   2 C  px        
 
 Vector   39  Occ=0.000000D+00  E= 1.027216D-01
              MO Center= -2.8D-03,  4.3D-02,  2.5D-13, r^2= 1.9D+01
   Bfn.  Coefficient  Atom+Function         Bfn.  Coefficient  Atom+Function  
  ----- ------------  ---------------      ----- ------------  ---------------
    51     12.473801   2 C  s               235    -12.473424   6 C  s         
    97     11.039080   3 C  s               189    -11.039272   5 C  s         
    15      9.865693   1 C  px              153      9.429355   4 C  px        
   246     -6.877958   6 C  py               62      6.741219   2 C  py        
   108     -5.767682   3 C  py              200      5.665104   5 C  py        
 
 Vector   40  Occ=0.000000D+00  E= 1.064039D-01
              MO Center= -1.6D-02,  2.5D-01,  1.6D-13, r^2= 2.0D+01
   Bfn.  Coefficient  Atom+Function         Bfn.  Coefficient  Atom+Function  
  ----- ------------  ---------------      ----- ------------  ---------------
   143     17.179695   4 C  s                 5    -10.074802   1 C  s         
    51     -9.244043   2 C  s               235     -9.244331   6 C  s         
   107     -7.887087   3 C  px              199      7.094833   5 C  px        
   245     -6.883101   6 C  px              200      6.758595   5 C  py        
    61      6.295955   2 C  px              108      5.814370   3 C  py        
 
 Vector   41  Occ=0.000000D+00  E= 1.078555D-01
              MO Center=  4.3D-02, -6.9D-01, -3.1D-13, r^2= 2.0D+01
   Bfn.  Coefficient  Atom+Function         Bfn.  Coefficient  Atom+Function  
  ----- ------------  ---------------      ----- ------------  ---------------
   155      5.606534   4 C  pz              109     -3.804419   3 C  pz        
   201     -3.803632   5 C  pz               17      1.717071   1 C  pz        
   152      1.014306   4 C  pz              106     -0.677446   3 C  pz        
   198     -0.677302   5 C  pz              167      0.576386   4 C  d -1      
   123      0.407465   3 C  d  1            215     -0.408575   5 C  d  1      
 
 Vector   42  Occ=0.000000D+00  E= 1.083350D-01
              MO Center= -1.0D-02,  1.7D-01,  6.4D-14, r^2= 2.2D+01
   Bfn.  Coefficient  Atom+Function         Bfn.  Coefficient  Atom+Function  
  ----- ------------  ---------------      ----- ------------  ---------------
    63      3.414869   2 C  pz              247     -3.414866   6 C  pz        
   109     -3.352187   3 C  pz              201      3.353083   5 C  pz        
    60      0.654427   2 C  pz              244     -0.654402   6 C  pz        
   106     -0.629575   3 C  pz              198      0.629720   5 C  pz        
   121     -0.451393   3 C  d -1            259      0.440760   6 C  d -1      
 
 Vector   43  Occ=0.000000D+00  E= 1.093315D-01
              MO Center=  2.8D-02, -4.5D-01,  3.1D-13, r^2= 2.8D+01
   Bfn.  Coefficient  Atom+Function         Bfn.  Coefficient  Atom+Function  
  ----- ------------  ---------------      ----- ------------  ---------------
   326      7.850230   9 H  s               303     -6.870389   8 H  s         
   349     -6.870292  10 H  s               154      6.124858   4 C  py        
     4      3.833198   1 C  s               199      3.549696   5 C  px        
   246     -3.426733   6 C  py              108     -3.350635   3 C  py        
   151      3.319864   4 C  py               62     -3.283448   2 C  py        
 
 Vector   44  Occ=0.000000D+00  E= 1.154453D-01
              MO Center= -5.5D-02,  8.8D-01,  1.2D-13, r^2= 1.3D+01
   Bfn.  Coefficient  Atom+Function         Bfn.  Coefficient  Atom+Function  
  ----- ------------  ---------------      ----- ------------  ---------------
    17      6.347384   1 C  pz               63     -5.521719   2 C  pz        
   247     -5.521689   6 C  pz              109      4.167240   3 C  pz        
   201      4.167247   5 C  pz              155     -3.559526   4 C  pz        
    14      1.076554   1 C  pz               60     -0.915078   2 C  pz        
   244     -0.915071   6 C  pz              106      0.687854   3 C  pz        
 
 Vector   45  Occ=0.000000D+00  E= 1.264880D-01
              MO Center= -2.2D-02,  3.5D-01,  3.1D-14, r^2= 2.5D+01
   Bfn.  Coefficient  Atom+Function         Bfn.  Coefficient  Atom+Function  
  ----- ------------  ---------------      ----- ------------  ---------------
    15      7.421921   1 C  px               61     -6.700138   2 C  px        
   245     -6.640118   6 C  px               51      6.591508   2 C  s         
   107      6.560680   3 C  px              199      6.586608   5 C  px        
   235     -6.590148   6 C  s               153     -6.427602   4 C  px        
    97     -5.304380   3 C  s               189      5.305230   5 C  s         
 
 Vector   46  Occ=0.000000D+00  E= 1.268340D-01
              MO Center= -8.3D-03,  1.3D-01, -1.6D-14, r^2= 2.6D+01
   Bfn.  Coefficient  Atom+Function         Bfn.  Coefficient  Atom+Function  
  ----- ------------  ---------------      ----- ------------  ---------------
   154      8.132823   4 C  py              108     -7.020472   3 C  py        
   200     -6.750020   5 C  py               16     -6.390775   1 C  py        
    62      6.120785   2 C  py              246      5.948149   6 C  py        
     5     -4.543792   1 C  s               326      4.074257   9 H  s         
   143     -3.334022   4 C  s               303     -3.144632   8 H  s         
 
 Vector   47  Occ=0.000000D+00  E= 1.581684D-01
              MO Center= -6.2D-03,  9.8D-02,  1.7D-13, r^2= 1.8D+01
   Bfn.  Coefficient  Atom+Function         Bfn.  Coefficient  Atom+Function  
  ----- ------------  ---------------      ----- ------------  ---------------
    63     -8.131956   2 C  pz              247     -8.131858   6 C  pz        
    17      8.069247   1 C  pz              109      8.091089   3 C  pz        
   155     -8.080023   4 C  pz              201      8.091050   5 C  pz        
   152     -1.200533   4 C  pz               60     -1.164385   2 C  pz        
   106      1.162750   3 C  pz              198      1.162740   5 C  pz        
 
 Vector   48  Occ=0.000000D+00  E= 1.657249D-01
              MO Center= -9.2D-02,  1.5D+00, -2.8D-13, r^2= 2.2D+01
   Bfn.  Coefficient  Atom+Function         Bfn.  Coefficient  Atom+Function  
  ----- ------------  ---------------      ----- ------------  ---------------
     5     57.443341   1 C  s                51    -26.082201   2 C  s         
   235    -26.082995   6 C  s               143     24.361952   4 C  s         
    97    -13.571461   3 C  s               189    -13.571047   5 C  s         
   154      7.307132   4 C  py              245      6.725750   6 C  px        
    61     -6.247091   2 C  px              326      6.133522   9 H  s         
 
 Vector   49  Occ=0.000000D+00  E= 1.737219D-01
              MO Center=  2.1D-02, -3.4D-01, -2.3D-13, r^2= 1.1D+01
   Bfn.  Coefficient  Atom+Function         Bfn.  Coefficient  Atom+Function  
  ----- ------------  ---------------      ----- ------------  ---------------
   335      1.105652   9 H  pz              289      1.009441   7 H  pz        
   381      1.009439  11 H  pz              312      0.989090   8 H  pz        
   358      0.989092  10 H  pz              106     -0.890600   3 C  pz        
   198     -0.890598   5 C  pz               29      0.536228   1 C  d -1      
   109     -0.506456   3 C  pz              201     -0.506461   5 C  pz        
 
 Vector   50  Occ=0.000000D+00  E= 1.859658D-01
              MO Center=  4.8D-02, -7.6D-01,  1.4D-13, r^2= 1.5D+01
   Bfn.  Coefficient  Atom+Function         Bfn.  Coefficient  Atom+Function  
  ----- ------------  ---------------      ----- ------------  ---------------
     5      9.395347   1 C  s                51     -5.496619   2 C  s         
   235     -5.495727   6 C  s                97     -5.041431   3 C  s         
   189     -5.041503   5 C  s               154      3.951518   4 C  py        
   325      3.135833   9 H  s               302      2.848942   8 H  s         
   348      2.848666  10 H  s               279      2.529337   7 H  s         
 
 Vector   51  Occ=0.000000D+00  E= 1.975132D-01
              MO Center= -2.9D-02,  4.6D-01, -1.9D-13, r^2= 2.3D+01
   Bfn.  Coefficient  Atom+Function         Bfn.  Coefficient  Atom+Function  
  ----- ------------  ---------------      ----- ------------  ---------------
    51     42.826914   2 C  s               235    -42.814167   6 C  s         
    97     25.106220   3 C  s               189    -25.109930   5 C  s         
    15     19.878418   1 C  px              153     14.539792   4 C  px        
   302    -13.219133   8 H  s               348     13.220591  10 H  s         
   245      8.397448   6 C  px              279     -8.257740   7 H  s         
 
 Vector   52  Occ=0.000000D+00  E= 1.997313D-01
              MO Center=  3.8D-02, -5.9D-01, -6.1D-13, r^2= 2.3D+01
   Bfn.  Coefficient  Atom+Function         Bfn.  Coefficient  Atom+Function  
  ----- ------------  ---------------      ----- ------------  ---------------
   143     59.150344   4 C  s                51    -33.180126   2 C  s         
   235    -33.196924   6 C  s               325    -17.578006   9 H  s         
    62     14.575902   2 C  py              246     14.294919   6 C  py        
   200     13.419351   5 C  py                5    -12.712607   1 C  s         
   108     12.244292   3 C  py              279     10.923468   7 H  s         
 
 Vector   53  Occ=0.000000D+00  E= 2.135060D-01
              MO Center=  9.2D-02, -1.5D+00,  3.0D-14, r^2= 1.6D+01
   Bfn.  Coefficient  Atom+Function         Bfn.  Coefficient  Atom+Function  
  ----- ------------  ---------------      ----- ------------  ---------------
    97     10.197013   3 C  s               189    -10.197122   5 C  s         
    96      5.933762   3 C  s               188     -5.933813   5 C  s         
    51     -5.716496   2 C  s               235      5.717157   6 C  s         
   303      4.893553   8 H  s               349     -4.893551  10 H  s         
   153      4.358477   4 C  px              279     -3.907265   7 H  s         
 
 Vector   54  Occ=0.000000D+00  E= 2.167912D-01
              MO Center=  1.7D-02, -2.7D-01, -7.1D-14, r^2= 1.5D+01
   Bfn.  Coefficient  Atom+Function         Bfn.  Coefficient  Atom+Function  
  ----- ------------  ---------------      ----- ------------  ---------------
   143     22.816266   4 C  s                51    -16.374624   2 C  s         
   235    -16.380318   6 C  s                 5     15.500151   1 C  s         
    16     -5.820081   1 C  py              325     -5.810220   9 H  s         
    62      4.194787   2 C  py              246      4.118371   6 C  py        
   197     -2.851728   5 C  py              105     -2.791510   3 C  py        
 
 Vector   55  Occ=0.000000D+00  E= 2.196333D-01
              MO Center= -9.4D-03,  1.5D-01, -5.2D-13, r^2= 1.4D+01
   Bfn.  Coefficient  Atom+Function         Bfn.  Coefficient  Atom+Function  
  ----- ------------  ---------------      ----- ------------  ---------------
    51     19.791176   2 C  s               235    -19.786562   6 C  s         
    15     10.095077   1 C  px              153      7.012005   4 C  px        
   302     -6.850407   8 H  s               348      6.850546  10 H  s         
   108     -6.801813   3 C  py              246     -6.727765   6 C  py        
    62      6.689625   2 C  py              200      6.386820   5 C  py        
 
 Vector   56  Occ=0.000000D+00  E= 2.306243D-01
              MO Center= -1.4D-02,  2.3D-01,  4.4D-13, r^2= 1.8D+01
   Bfn.  Coefficient  Atom+Function         Bfn.  Coefficient  Atom+Function  
  ----- ------------  ---------------      ----- ------------  ---------------
   199      4.385498   5 C  px              107      4.218441   3 C  px        
    50     -3.981499   2 C  s               153     -3.970033   4 C  px        
   234      3.981527   6 C  s               303      2.546845   8 H  s         
   349     -2.547258  10 H  s                15     -1.921860   1 C  px        
    28      1.905787   1 C  d -2            288     -1.789233   7 H  py        
 
 Vector   57  Occ=0.000000D+00  E= 2.316576D-01
              MO Center=  1.9D-03, -3.0D-02,  4.0D-13, r^2= 1.6D+01
   Bfn.  Coefficient  Atom+Function         Bfn.  Coefficient  Atom+Function  
  ----- ------------  ---------------      ----- ------------  ---------------
   106      2.165127   3 C  pz              198     -2.165135   5 C  pz        
    60      1.909025   2 C  pz              244     -1.908996   6 C  pz        
   312     -1.850708   8 H  pz              358      1.850704  10 H  pz        
   289     -1.738100   7 H  pz              381      1.738080  11 H  pz        
   169     -1.464350   4 C  d  1            109      1.156313   3 C  pz        
 
 Vector   58  Occ=0.000000D+00  E= 2.352984D-01
              MO Center= -1.3D-02,  2.0D-01, -7.1D-13, r^2= 1.6D+01
   Bfn.  Coefficient  Atom+Function         Bfn.  Coefficient  Atom+Function  
  ----- ------------  ---------------      ----- ------------  ---------------
   143     14.184835   4 C  s                51    -10.160064   2 C  s         
   235    -10.169065   6 C  s               107     -7.715583   3 C  px        
   199      7.264355   5 C  px               61      5.317491   2 C  px        
   245     -5.198256   6 C  px              200      4.040175   5 C  py        
   303     -4.021039   8 H  s               349     -4.019610  10 H  s         
 
 Vector   59  Occ=0.000000D+00  E= 2.385366D-01
              MO Center= -5.1D-03,  8.0D-02, -3.3D-13, r^2= 1.8D+01
   Bfn.  Coefficient  Atom+Function         Bfn.  Coefficient  Atom+Function  
  ----- ------------  ---------------      ----- ------------  ---------------
    97    -32.228066   3 C  s               189     32.227952   5 C  s         
    51     29.316336   2 C  s               235    -29.313355   6 C  s         
    96    -15.802704   3 C  s               188     15.803213   5 C  s         
   279     10.671209   7 H  s               371    -10.671558  11 H  s         
    59    -10.332605   2 C  py              302    -10.207860   8 H  s         
 
 Vector   60  Occ=0.000000D+00  E= 2.424669D-01
              MO Center=  9.4D-03, -1.5D-01,  1.4D-12, r^2= 1.6D+01
   Bfn.  Coefficient  Atom+Function         Bfn.  Coefficient  Atom+Function  
  ----- ------------  ---------------      ----- ------------  ---------------
   152      3.389165   4 C  pz               14     -2.811436   1 C  pz        
   335     -2.129703   9 H  pz              289      2.066357   7 H  pz        
   381      2.066385  11 H  pz              261      1.912604   6 C  d  1      
    77     -1.887907   2 C  d  1             63     -1.636771   2 C  pz        
   247     -1.636780   6 C  pz              123      1.353095   3 C  d  1      
 
 Vector   61  Occ=0.000000D+00  E= 2.591455D-01
              MO Center=  5.8D-02, -9.2D-01, -4.3D-14, r^2= 1.8D+01
   Bfn.  Coefficient  Atom+Function         Bfn.  Coefficient  Atom+Function  
  ----- ------------  ---------------      ----- ------------  ---------------
     5     12.185407   1 C  s               108     -7.550416   3 C  py        
   154      7.561686   4 C  py              200     -6.836769   5 C  py        
   303     -6.253872   8 H  s               349     -6.253660  10 H  s         
   199      6.115969   5 C  px              107     -5.209696   3 C  px        
   105     -4.987548   3 C  py              197     -4.970223   5 C  py        
 
 Vector   62  Occ=0.000000D+00  E= 2.628024D-01
              MO Center=  5.6D-02, -8.8D-01, -1.3D-13, r^2= 1.7D+01
   Bfn.  Coefficient  Atom+Function         Bfn.  Coefficient  Atom+Function  
  ----- ------------  ---------------      ----- ------------  ---------------
     5     17.597877   1 C  s               143     15.886543   4 C  s         
   154     14.833760   4 C  py               51    -14.038344   2 C  s         
   235    -14.035098   6 C  s               326      8.627018   9 H  s         
     4      5.413820   1 C  s               151      3.990377   4 C  py        
   246      3.904788   6 C  py              108     -3.882582   3 C  py        
 
 Vector   63  Occ=0.000000D+00  E= 2.654811D-01
              MO Center= -3.2D-02,  5.1D-01, -1.3D-14, r^2= 1.8D+01
   Bfn.  Coefficient  Atom+Function         Bfn.  Coefficient  Atom+Function  
  ----- ------------  ---------------      ----- ------------  ---------------
    51     16.386862   2 C  s               235    -16.389263   6 C  s         
    61      9.968856   2 C  px              245      9.500529   6 C  px        
   279      7.924914   7 H  s               371     -7.925197  11 H  s         
    96     -7.229618   3 C  s               188      7.228907   5 C  s         
    97     -6.645380   3 C  s               189      6.644943   5 C  s         
 
 Vector   64  Occ=0.000000D+00  E= 2.735607D-01
              MO Center= -1.4D-02,  2.2D-01, -1.9D-13, r^2= 1.3D+01
   Bfn.  Coefficient  Atom+Function         Bfn.  Coefficient  Atom+Function  
  ----- ------------  ---------------      ----- ------------  ---------------
   279      5.989142   7 H  s               371      5.988938  11 H  s         
   143     -4.589125   4 C  s               302      4.390228   8 H  s         
   348      4.391353  10 H  s               325      4.283441   9 H  s         
    97     -3.998801   3 C  s               189     -3.996985   5 C  s         
   246     -2.515420   6 C  py               62     -2.453074   2 C  py        
 
 Vector   65  Occ=0.000000D+00  E= 2.790349D-01
              MO Center= -7.9D-03,  1.2D-01, -7.2D-14, r^2= 1.7D+01
   Bfn.  Coefficient  Atom+Function         Bfn.  Coefficient  Atom+Function  
  ----- ------------  ---------------      ----- ------------  ---------------
    97    -12.868002   3 C  s               189     12.868929   5 C  s         
    51     12.764841   2 C  s               235    -12.764259   6 C  s         
   199    -10.689903   5 C  px              107    -10.280336   3 C  px        
   302     -8.467491   8 H  s               348      8.466761  10 H  s         
    61      8.266886   2 C  px              245      8.082148   6 C  px        
 
 Vector   66  Occ=0.000000D+00  E= 2.956183D-01
              MO Center= -5.5D-02,  8.7D-01, -7.6D-14, r^2= 1.5D+01
   Bfn.  Coefficient  Atom+Function         Bfn.  Coefficient  Atom+Function  
  ----- ------------  ---------------      ----- ------------  ---------------
     4      8.991969   1 C  s                 5      6.559936   1 C  s         
   105     -5.421399   3 C  py               59     -5.104176   2 C  py        
   143      5.077613   4 C  s               197     -5.013799   5 C  py        
   243     -5.025320   6 C  py              279     -5.014281   7 H  s         
   325     -5.011127   9 H  s               371     -5.014087  11 H  s         
 
 Vector   67  Occ=0.000000D+00  E= 2.959375D-01
              MO Center= -4.1D-03,  6.6D-02,  3.1D-13, r^2= 1.6D+01
   Bfn.  Coefficient  Atom+Function         Bfn.  Coefficient  Atom+Function  
  ----- ------------  ---------------      ----- ------------  ---------------
    63      3.220760   2 C  pz              247     -3.220771   6 C  pz        
   109     -3.174562   3 C  pz              201      3.174542   5 C  pz        
   289     -2.340032   7 H  pz              381      2.340045  11 H  pz        
   312      2.215685   8 H  pz              358     -2.215629  10 H  pz        
    60      2.190833   2 C  pz              244     -2.190889   6 C  pz        
 
 Vector   68  Occ=0.000000D+00  E= 3.069443D-01
              MO Center=  1.7D-02, -2.7D-01,  6.3D-13, r^2= 1.5D+01
   Bfn.  Coefficient  Atom+Function         Bfn.  Coefficient  Atom+Function  
  ----- ------------  ---------------      ----- ------------  ---------------
   155      5.127937   4 C  pz               14      4.184761   1 C  pz        
   109     -3.704754   3 C  pz              201     -3.704818   5 C  pz        
   335     -2.749487   9 H  pz               60     -2.112603   2 C  pz        
   244     -2.112555   6 C  pz              312      1.815725   8 H  pz        
   358      1.815802  10 H  pz               29     -1.786510   1 C  d -1      
 
 Vector   69  Occ=0.000000D+00  E= 3.144785D-01
              MO Center=  3.8D-03, -6.2D-02, -2.1D-14, r^2= 9.0D+00
   Bfn.  Coefficient  Atom+Function         Bfn.  Coefficient  Atom+Function  
  ----- ------------  ---------------      ----- ------------  ---------------
   261      0.650317   6 C  d  1            213     -0.638749   5 C  d -1      
   121      0.632344   3 C  d -1             77      0.605208   2 C  d  1      
   169     -0.601997   4 C  d  1            289     -0.497746   7 H  pz        
   381      0.497756  11 H  pz               75     -0.398779   2 C  d -1      
    31     -0.375807   1 C  d  1            312      0.324842   8 H  pz        
 
 Vector   70  Occ=0.000000D+00  E= 3.276977D-01
              MO Center=  2.9D-02, -4.7D-01, -2.7D-13, r^2= 1.5D+01
   Bfn.  Coefficient  Atom+Function         Bfn.  Coefficient  Atom+Function  
  ----- ------------  ---------------      ----- ------------  ---------------
   142     11.530230   4 C  s                96      9.863246   3 C  s         
   188      9.862819   5 C  s                 5      7.656050   1 C  s         
   151     -6.446907   4 C  py                4     -5.142288   1 C  s         
   279     -4.615661   7 H  s               371     -4.615129  11 H  s         
   334     -4.545419   9 H  py              302     -4.511129   8 H  s         
 
 Vector   71  Occ=0.000000D+00  E= 3.357668D-01
              MO Center= -4.4D-04,  7.1D-03,  4.5D-13, r^2= 7.6D+00
   Bfn.  Coefficient  Atom+Function         Bfn.  Coefficient  Atom+Function  
  ----- ------------  ---------------      ----- ------------  ---------------
    14      1.571010   1 C  pz              335     -1.509272   9 H  pz        
   289     -1.316617   7 H  pz              381     -1.316719  11 H  pz        
   312     -1.296302   8 H  pz              358     -1.296221  10 H  pz        
    77      1.163814   2 C  d  1            261     -1.162790   6 C  d  1      
   121     -0.713390   3 C  d -1            167     -0.702164   4 C  d -1      
 
 Vector   72  Occ=0.000000D+00  E= 3.428150D-01
              MO Center=  2.0D-02, -3.2D-01, -1.3D-13, r^2= 1.2D+01
   Bfn.  Coefficient  Atom+Function         Bfn.  Coefficient  Atom+Function  
  ----- ------------  ---------------      ----- ------------  ---------------
    51     18.632734   2 C  s               235    -18.629150   6 C  s         
    97     12.731518   3 C  s               189    -12.733458   5 C  s         
   302    -11.745331   8 H  s               348     11.747255  10 H  s         
   279    -11.276860   7 H  s               371     11.270830  11 H  s         
    12     -9.037073   1 C  px              150     -6.992493   4 C  px        
 
 Vector   73  Occ=0.000000D+00  E= 3.458064D-01
              MO Center=  3.2D-02, -5.0D-01,  1.7D-13, r^2= 1.2D+01
   Bfn.  Coefficient  Atom+Function         Bfn.  Coefficient  Atom+Function  
  ----- ------------  ---------------      ----- ------------  ---------------
   169      3.666025   4 C  d  1            312     -2.631995   8 H  pz        
   358      2.632296  10 H  pz              123      2.561325   3 C  d  1      
   215      2.486415   5 C  d  1             31      1.995931   1 C  d  1      
   106     -1.912238   3 C  pz              198      1.912389   5 C  pz        
   289     -1.262545   7 H  pz              381      1.262408  11 H  pz        
 
 Vector   74  Occ=0.000000D+00  E= 3.463212D-01
              MO Center=  4.2D-03, -6.7D-02, -1.1D-11, r^2= 1.4D+01
   Bfn.  Coefficient  Atom+Function         Bfn.  Coefficient  Atom+Function  
  ----- ------------  ---------------      ----- ------------  ---------------
   155     -4.938092   4 C  pz               17      4.790801   1 C  pz        
    63     -4.585651   2 C  pz              109      4.581079   3 C  pz        
   201      4.581073   5 C  pz              247     -4.585594   6 C  pz        
   152     -2.763779   4 C  pz              289      2.562962   7 H  pz        
   381      2.562943  11 H  pz               75     -2.213078   2 C  d -1      
 
 Vector   75  Occ=0.000000D+00  E= 3.471319D-01
              MO Center= -2.9D-02,  4.6D-01,  1.1D-11, r^2= 1.2D+01
   Bfn.  Coefficient  Atom+Function         Bfn.  Coefficient  Atom+Function  
  ----- ------------  ---------------      ----- ------------  ---------------
   143     22.441881   4 C  s               325    -12.956272   9 H  s         
   279     12.573421   7 H  s               371     12.578690  11 H  s         
    51    -11.906626   2 C  s               235    -11.913883   6 C  s         
     5     -6.945869   1 C  s               197     -6.559479   5 C  py        
   105     -6.463413   3 C  py              243     -5.633672   6 C  py        
 
 Vector   76  Occ=0.000000D+00  E= 3.522149D-01
              MO Center= -2.4D-02,  3.7D-01, -3.9D-12, r^2= 1.5D+01
   Bfn.  Coefficient  Atom+Function         Bfn.  Coefficient  Atom+Function  
  ----- ------------  ---------------      ----- ------------  ---------------
     5     30.776720   1 C  s                51    -16.841581   2 C  s         
   235    -16.841055   6 C  s               143     15.950320   4 C  s         
   151    -10.279078   4 C  py               50      9.218109   2 C  s         
   234      9.218774   6 C  s                13      7.712856   1 C  py        
   279     -7.372016   7 H  s               371     -7.373425  11 H  s         
 
 Vector   77  Occ=0.000000D+00  E= 3.525562D-01
              MO Center=  5.4D-02, -8.6D-01,  4.0D-12, r^2= 1.3D+01
   Bfn.  Coefficient  Atom+Function         Bfn.  Coefficient  Atom+Function  
  ----- ------------  ---------------      ----- ------------  ---------------
    17      5.278343   1 C  pz               63     -5.021806   2 C  pz        
   247     -5.021736   6 C  pz              335      4.458660   9 H  pz        
   109      4.384347   3 C  pz              201      4.384343   5 C  pz        
   155     -3.959774   4 C  pz              167      3.609321   4 C  d -1      
    14      2.813460   1 C  pz               60     -2.448967   2 C  pz        
 
 Vector   78  Occ=0.000000D+00  E= 3.587098D-01
              MO Center= -5.0D-02,  7.9D-01, -2.8D-13, r^2= 1.3D+01
   Bfn.  Coefficient  Atom+Function         Bfn.  Coefficient  Atom+Function  
  ----- ------------  ---------------      ----- ------------  ---------------
   289      3.465557   7 H  pz              381     -3.465552  11 H  pz        
    60      3.116627   2 C  pz               77     -3.120517   2 C  d  1      
   244     -3.116557   6 C  pz              121     -3.057371   3 C  d -1      
   259      2.879154   6 C  d -1            213      2.772584   5 C  d -1      
   261     -2.781100   6 C  d  1            106     -2.611532   3 C  pz        
 
 Vector   79  Occ=0.000000D+00  E= 3.639691D-01
              MO Center=  1.1D-02, -1.6D-01,  5.6D-13, r^2= 1.3D+01
   Bfn.  Coefficient  Atom+Function         Bfn.  Coefficient  Atom+Function  
  ----- ------------  ---------------      ----- ------------  ---------------
    51     10.733206   2 C  s               235    -10.730067   6 C  s         
    97     -6.534942   3 C  s               189      6.534108   5 C  s         
    50     -5.364621   2 C  s               234      5.361625   6 C  s         
   212      4.825349   5 C  d -2             15      4.723531   1 C  px        
   357     -4.549066  10 H  py              311      4.365169   8 H  py        
 
 Vector   80  Occ=0.000000D+00  E= 3.665839D-01
              MO Center=  4.3D-02, -6.9D-01,  5.7D-15, r^2= 1.3D+01
[...]
   13 Bend                     1     2     7               122.50057   -0.00001
   14 Bend                     1     6     5               116.47997   -0.00001
   15 Bend                     1     6    11               122.50059   -0.00001
   16 Bend                     2     1     6               126.05349    0.00001
   17 Bend                     2     3     4               120.15374   -0.00001
   18 Bend                     2     3     8               119.64570    0.00001
   19 Bend                     3     2     7               121.01947    0.00002
   20 Bend                     3     4     5               120.67911    0.00001
   21 Bend                     3     4     9               119.66043   -0.00001
   22 Bend                     4     3     8               120.20055   -0.00000
   23 Bend                     4     5     6               120.15373   -0.00001
   24 Bend                     4     5    10               120.20059   -0.00000
   25 Bend                     5     4     9               119.66046   -0.00001
   26 Bend                     5     6    11               121.01945    0.00002
   27 Bend                     6     5    10               119.64567    0.00001
   28 Torsion                  1     2     3     4           0.00000   -0.00000
   29 Torsion                  1     2     3     8        -180.00000   -0.00000
   30 Torsion                  1     6     5     4           0.00000    0.00000
   31 Torsion                  1     6     5    10         180.00000    0.00000
   32 Torsion                  2     1     6     5           0.00000    0.00000
   33 Torsion                  2     1     6    11         180.00000   -0.00000
   34 Torsion                  2     3     4     5           0.00000    0.00000
   35 Torsion                  2     3     4     9        -180.00000    0.00000
   36 Torsion                  3     2     1     6           0.00000   -0.00000
   37 Torsion                  3     4     5     6           0.00000   -0.00000
   38 Torsion                  3     4     5    10        -180.00000   -0.00000
   39 Torsion                  4     3     2     7         180.00000    0.00000
   40 Torsion                  4     5     6    11        -180.00000    0.00000
   41 Torsion                  5     4     3     8         180.00000    0.00000
   42 Torsion                  6     1     2     7        -180.00000   -0.00000
   43 Torsion                  6     5     4     9        -180.00000   -0.00000
   44 Torsion                  7     2     3     8           0.00000   -0.00000
   45 Torsion                  8     3     4     9           0.00000    0.00000
   46 Torsion                  9     4     5    10           0.00000    0.00000
   47 Torsion                 10     5     6    11           0.00000    0.00000
 

      ----------------------
      Optimization converged
      ----------------------


  Step       Energy      Delta E   Gmax     Grms     Xrms     Xmax   Walltime
  ---- ---------------- -------- -------- -------- -------- -------- --------
@    4    -231.64632733 -2.0D-06  0.00004  0.00001  0.00072  0.00141    687.5
                                     ok       ok       ok       ok  



                                Z-matrix (autoz)
                                -------- 

 Units are Angstrom for bonds and degrees for angles
 
      Type          Name      I     J     K     L     M      Value     Gradient
      ----------- --------  ----- ----- ----- ----- ----- ---------- ----------
    1 Stretch                  1     2                       1.37047    0.00000
    2 Stretch                  1     6                       1.37047    0.00000
    3 Stretch                  2     3                       1.39941    0.00004
    4 Stretch                  2     7                       1.08176   -0.00002
    5 Stretch                  3     4                       1.39169   -0.00000
    6 Stretch                  3     8                       1.08253    0.00000
    7 Stretch                  4     5                       1.39169   -0.00000
    8 Stretch                  4     9                       1.08153    0.00001
    9 Stretch                  5     6                       1.39941    0.00004
   10 Stretch                  5    10                       1.08253    0.00000
   11 Stretch                  6    11                       1.08176   -0.00002
   12 Bend                     1     2     3               116.47996   -0.00001
   13 Bend                     1     2     7               122.50057   -0.00001
   14 Bend                     1     6     5               116.47997   -0.00001
   15 Bend                     1     6    11               122.50059   -0.00001
   16 Bend                     2     1     6               126.05349    0.00001
   17 Bend                     2     3     4               120.15374   -0.00001
   18 Bend                     2     3     8               119.64570    0.00001
   19 Bend                     3     2     7               121.01947    0.00002
   20 Bend                     3     4     5               120.67911    0.00001
   21 Bend                     3     4     9               119.66043   -0.00001
   22 Bend                     4     3     8               120.20055   -0.00000
   23 Bend                     4     5     6               120.15373   -0.00001
   24 Bend                     4     5    10               120.20059   -0.00000
   25 Bend                     5     4     9               119.66046   -0.00001
   26 Bend                     5     6    11               121.01945    0.00002
   27 Bend                     6     5    10               119.64567    0.00001
   28 Torsion                  1     2     3     4           0.00000   -0.00000
   29 Torsion                  1     2     3     8        -180.00000   -0.00000
   30 Torsion                  1     6     5     4           0.00000    0.00000
   31 Torsion                  1     6     5    10         180.00000    0.00000
   32 Torsion                  2     1     6     5           0.00000    0.00000
   33 Torsion                  2     1     6    11         180.00000   -0.00000
   34 Torsion                  2     3     4     5           0.00000    0.00000
   35 Torsion                  2     3     4     9        -180.00000    0.00000
   36 Torsion                  3     2     1     6           0.00000   -0.00000
   37 Torsion                  3     4     5     6           0.00000   -0.00000
   38 Torsion                  3     4     5    10        -180.00000   -0.00000
   39 Torsion                  4     3     2     7         180.00000    0.00000
   40 Torsion                  4     5     6    11        -180.00000    0.00000
   41 Torsion                  5     4     3     8         180.00000    0.00000
   42 Torsion                  6     1     2     7        -180.00000   -0.00000
   43 Torsion                  6     5     4     9        -180.00000   -0.00000
   44 Torsion                  7     2     3     8           0.00000   -0.00000
   45 Torsion                  8     3     4     9           0.00000    0.00000
   46 Torsion                  9     4     5    10           0.00000    0.00000
   47 Torsion                 10     5     6    11           0.00000    0.00000
 
 
 
                         Geometry "geometry" -> "geometry"
                         ---------------------------------
 
 Output coordinates in angstroms (scale by  1.889725989 to convert to a.u.)
 
  No.       Tag          Charge          X              Y              Z
 ---- ---------------- ---------- -------------- -------------- --------------
    1 C                    6.0000    -0.08714006     1.38304372     0.00000008
    2 C                    6.0000    -1.26702264     0.68586055     0.00000001
    3 C                    6.0000    -1.16700412    -0.70996889     0.00000001
    4 C                    6.0000     0.08324816    -1.32124953     0.00000007
    5 C                    6.0000     1.24688828    -0.55787799     0.00000002
    6 C                    6.0000     1.17091838     0.83946690     0.00000008
    7 H                    1.0000    -2.23155837     1.17564063    -0.00000007
    8 H                    1.0000    -2.06715194    -1.31129762    -0.00000006
    9 H                    1.0000     0.15125622    -2.40063469     0.00000003
   10 H                    1.0000     2.21539348    -1.04146876    -0.00000010
   11 H                    1.0000     2.06635187     1.44643689    -0.00000007
 
      Atomic Mass 
      ----------- 
 
      C                 12.000000
      H                  1.007825
 

 Effective nuclear repulsion energy (a.u.)     195.0640129088

            Nuclear Dipole moment (a.u.) 
            ----------------------------
        X                 Y               Z
 ---------------- ---------------- ----------------
     0.0257367409    -0.4075666354     0.0000025734
 
 
                Final and change from initial internal coordinates
                --------------------------------------------------
 


                                Z-matrix (autoz)
                                -------- 

 Units are Angstrom for bonds and degrees for angles
 
      Type          Name      I     J     K     L     M      Value       Change
      ----------- --------  ----- ----- ----- ----- ----- ---------- ----------
    1 Stretch                  1     2                       1.37047   -0.02857
    2 Stretch                  1     6                       1.37047   -0.02858
    3 Stretch                  2     3                       1.39941    0.00037
    4 Stretch                  2     7                       1.08176   -0.00058
    5 Stretch                  3     4                       1.39169   -0.00736
    6 Stretch                  3     8                       1.08253    0.00019
    7 Stretch                  4     5                       1.39169   -0.00735
    8 Stretch                  4     9                       1.08153   -0.00082
    9 Stretch                  5     6                       1.39941    0.00036
   10 Stretch                  5    10                       1.08253    0.00019
   11 Stretch                  6    11                       1.08176   -0.00058
   12 Bend                     1     2     3               116.47996   -3.52041
   13 Bend                     1     2     7               122.50057    2.50085
   14 Bend                     1     6     5               116.47997   -3.51980
   15 Bend                     1     6    11               122.50059    2.50051
   16 Bend                     2     1     6               126.05349    6.05366
   17 Bend                     2     3     4               120.15374    0.15395
   18 Bend                     2     3     8               119.64570   -0.35472
   19 Bend                     3     2     7               121.01947    1.01956
   20 Bend                     3     4     5               120.67911    0.67894
   21 Bend                     3     4     9               119.66043   -0.33955
   22 Bend                     4     3     8               120.20055    0.20077
   23 Bend                     4     5     6               120.15373    0.15368
   24 Bend                     4     5    10               120.20059    0.20006
   25 Bend                     5     4     9               119.66046   -0.33939
   26 Bend                     5     6    11               121.01945    1.01929
   27 Bend                     6     5    10               119.64567   -0.35373
   28 Torsion                  1     2     3     4           0.00000    0.00000
   29 Torsion                  1     2     3     8        -180.00000    0.00000
   30 Torsion                  1     6     5     4           0.00000    0.00000
   31 Torsion                  1     6     5    10         180.00000    0.00000
   32 Torsion                  2     1     6     5           0.00000    0.00000
   33 Torsion                  2     1     6    11         180.00000    0.00000
   34 Torsion                  2     3     4     5           0.00000    0.00000
   35 Torsion                  2     3     4     9        -180.00000    0.00000
   36 Torsion                  3     2     1     6           0.00000    0.00000
   37 Torsion                  3     4     5     6           0.00000    0.00000
   38 Torsion                  3     4     5    10        -180.00000    0.00000
   39 Torsion                  4     3     2     7         180.00000    0.00000
   40 Torsion                  4     5     6    11        -180.00000    0.00000
   41 Torsion                  5     4     3     8         180.00000    0.00000
   42 Torsion                  6     1     2     7        -180.00000    0.00000
   43 Torsion                  6     5     4     9        -180.00000    0.00000
   44 Torsion                  7     2     3     8           0.00000    0.00000
   45 Torsion                  8     3     4     9           0.00000    0.00000
   46 Torsion                  9     4     5    10           0.00000    0.00000
   47 Torsion                 10     5     6    11           0.00000    0.00000
 
 ==============================================================================
                                internuclear distances
 ------------------------------------------------------------------------------
       center one      |      center two      | atomic units |  angstroms
 ------------------------------------------------------------------------------
    2 C                |   1 C                |     2.58981  |     1.37047
    3 C                |   2 C                |     2.64450  |     1.39941
    4 C                |   3 C                |     2.62991  |     1.39169
    5 C                |   4 C                |     2.62991  |     1.39169
    6 C                |   1 C                |     2.58981  |     1.37047
    6 C                |   5 C                |     2.64450  |     1.39941
    7 H                |   2 C                |     2.04424  |     1.08176
    8 H                |   3 C                |     2.04568  |     1.08253
    9 H                |   4 C                |     2.04379  |     1.08153
   10 H                |   5 C                |     2.04568  |     1.08253
   11 H                |   6 C                |     2.04424  |     1.08176
 ------------------------------------------------------------------------------
                         number of included internuclear distances:         11
 ==============================================================================



 ==============================================================================
                                 internuclear angles
 ------------------------------------------------------------------------------
        center 1       |       center 2       |       center 3       |  degrees
 ------------------------------------------------------------------------------
    2 C                |   1 C                |   6 C                |   126.05
    1 C                |   2 C                |   3 C                |   116.48
    1 C                |   2 C                |   7 H                |   122.50
    3 C                |   2 C                |   7 H                |   121.02
    2 C                |   3 C                |   4 C                |   120.15
    2 C                |   3 C                |   8 H                |   119.65
    4 C                |   3 C                |   8 H                |   120.20
    3 C                |   4 C                |   5 C                |   120.68
    3 C                |   4 C                |   9 H                |   119.66
    5 C                |   4 C                |   9 H                |   119.66
    4 C                |   5 C                |   6 C                |   120.15
    4 C                |   5 C                |  10 H                |   120.20
    6 C                |   5 C                |  10 H                |   119.65
    1 C                |   6 C                |   5 C                |   116.48
    1 C                |   6 C                |  11 H                |   122.50
    5 C                |   6 C                |  11 H                |   121.02
 ------------------------------------------------------------------------------
                            number of included internuclear angles:         16
 ==============================================================================




 Task  times  cpu:      682.3s     wall:      686.5s
 
 
                                NWChem Input Module
                                -------------------
 
 
 Summary of allocated global arrays
-----------------------------------
  No active global arrays



                         GA Statistics for process    0
                         ------------------------------

       create   destroy   get      put      acc     scatter   gather  read&inc
calls: 1746     1746     2.06e+05 3.45e+04 5.81e+04    0        0     2158     
number of processes/call 1.23e+00 2.03e+00 1.10e+00 0.00e+00 0.00e+00
bytes total:             3.00e+09 4.53e+08 1.15e+09 0.00e+00 0.00e+00 1.73e+04
bytes remote:            2.32e+09 2.56e+08 9.26e+08 0.00e+00 0.00e+00 0.00e+00
Max memory consumed for GA by this process: 9598176 bytes
 
MA_summarize_allocated_blocks: starting scan ...
MA_summarize_allocated_blocks: scan completed: 0 heap blocks, 0 stack blocks
MA usage statistics:

	allocation statistics:
					      heap	     stack
					      ----	     -----
	current number of blocks	         0	         0
	maximum number of blocks	        24	        52
	current total bytes		         0	         0
	maximum total bytes		   1179760	  47460616
	maximum total K-bytes		      1180	     47461
	maximum total M-bytes		         2	        48
 
 
                                     CITATION
                                     --------
                Please cite the following reference when publishing
                           results obtained with NWChem:
 
                 M. Valiev, E.J. Bylaska, N. Govind, K. Kowalski,
              T.P. Straatsma, H.J.J. van Dam, D. Wang, J. Nieplocha,
                        E. Apra, T.L. Windus, W.A. de Jong
                 "NWChem: a comprehensive and scalable open-source
                  solution for large scale molecular simulations"
                      Comput. Phys. Commun. 181, 1477 (2010)
                           doi:10.1016/j.cpc.2010.04.018
 
                                      AUTHORS
                                      -------
          E. Apra, E. J. Bylaska, W. A. de Jong, N. Govind, K. Kowalski,
       T. P. Straatsma, M. Valiev, H. J. J. van Dam, D. Wang, T. L. Windus,
        J. Hammond, J. Autschbach, K. Bhaskaran-Nair, J. Brabec, K. Lopata,
    S. A. Fischer, S. Krishnamoorthy, M. Jacquelin, W. Ma, M. Klemm, O. Villa,
      Y. Chen, V. Anisimov, F. Aquino, S. Hirata, M. T. Hackler, V. Konjkov,
            D. Mejia-Rodriguez, T. Risthaus, M. Malagoli, A. Marenich,
   A. Otero-de-la-Roza, J. Mullin, P. Nichols, R. Peverati, J. Pittner, Y. Zhao,
        P.-D. Fan, A. Fonari, M. J. Williamson, R. J. Harrison, J. R. Rehr,
      M. Dupuis, D. Silverstein, D. M. A. Smith, J. Nieplocha, V. Tipparaju,
    M. Krishnan, B. E. Van Kuiken, A. Vazquez-Mayagoitia, L. Jensen, M. Swart,
      Q. Wu, T. Van Voorhis, A. A. Auer, M. Nooijen, L. D. Crosby, E. Brown,
      G. Cisneros, G. I. Fann, H. Fruchtl, J. Garza, K. Hirao, R. A. Kendall,
      J. A. Nichols, K. Tsemekhman, K. Wolinski, J. Anchell, D. E. Bernholdt,
      P. Borowski, T. Clark, D. Clerc, H. Dachsel, M. J. O. Deegan, K. Dyall,
    D. Elwood, E. Glendening, M. Gutowski, A. C. Hess, J. Jaffe, B. G. Johnson,
     J. Ju, R. Kobayashi, R. Kutteh, Z. Lin, R. Littlefield, X. Long, B. Meng,
      T. Nakajima, S. Niu, L. Pollack, M. Rosing, K. Glaesemann, G. Sandrone,
      M. Stave, H. Taylor, G. Thomas, J. H. van Lenthe, A. T. Wong, Z. Zhang.

 Total times  cpu:      682.4s     wall:      687.6s
