 argument  1 = /storage/work/j/jbb5516/nwchemwork/capstone/tdspecStuff/normalModes/mode1064.40-p.nw
 


============================== echo of input deck ==============================
echo
start

memory stack 500 mb heap 500 mb global 1000 mb

title "None"

geometry
N    -0.03827337    0.00859480   -0.10791052
H     0.97414618    0.00490116   -0.06154466
H    -0.35381834    0.77826977    0.47104719
H    -0.35381832   -0.84301908    0.34191181
symmetry c1
end

basis spherical
 * library "cc-pVTZ"
end

driver
 maxiter 100
end

dft
 iterations 500
 xc b3lyp
end

tddft
 nroots 4
 notriplet
end

task tddft energy
================================================================================


                                         
                                         
 
 
              Northwest Computational Chemistry Package (NWChem) 6.8
              ------------------------------------------------------
 
 
                    Environmental Molecular Sciences Laboratory
                       Pacific Northwest National Laboratory
                                Richland, WA 99352
 
                              Copyright (c) 1994-2017
                       Pacific Northwest National Laboratory
                            Battelle Memorial Institute
 
             NWChem is an open-source computational chemistry package
                        distributed under the terms of the
                      Educational Community License (ECL) 2.0
             A copy of the license is included with this distribution
                              in the LICENSE.TXT file
 
                                  ACKNOWLEDGMENT
                                  --------------

            This software and its documentation were developed at the
            EMSL at Pacific Northwest National Laboratory, a multiprogram
            national laboratory, operated for the U.S. Department of Energy
            by Battelle under Contract Number DE-AC05-76RL01830. Support
            for this work was provided by the Department of Energy Office
            of Biological and Environmental Research, Office of Basic
            Energy Sciences, and the Office of Advanced Scientific Computing.


           Job information
           ---------------

    hostname        = comp-sc-0233.acib.production.int.aci.ics.psu.edu
    program         = /gpfs/group/lxj18/default/jeffprograms/nwchem-6.8.1/bin/LINUX64/nwchem
    date            = Wed Aug  5 21:01:35 2020

    compiled        = Wed_Oct_03_14:08:39_2018
    source          = /gpfs/group/lxj18/default/jeffprograms/nwchem-6.8.1
    nwchem branch   = 6.8.1
    nwchem revision = v6.8-143-gdb0d964
    ga revision     = 5.6.5
    use scalapack   = F
    input           = /storage/work/j/jbb5516/nwchemwork/capstone/tdspecStuff/normalModes/mode1064.40-p.nw
    prefix          = mode1064.40-p.
    data base       = ./mode1064.40-p.db
    status          = startup
    nproc           =        5
    time left       =     -1s



           Memory information
           ------------------

    heap     =   65535998 doubles =    500.0 Mbytes
    stack    =   65535995 doubles =    500.0 Mbytes
    global   =  131072000 doubles =   1000.0 Mbytes (distinct from heap & stack)
    total    =  262143993 doubles =   2000.0 Mbytes
    verify   = yes
    hardfail = no 


           Directory information
           ---------------------
 
  0 permanent = .
  0 scratch   = .
 
 
 
 
                                NWChem Input Module
                                -------------------
 
 
                                       None
                                       ----

 Scaling coordinates for geometry "geometry" by  1.889725989
 (inverse scale =  0.529177249)

 Turning off AUTOSYM since
 SYMMETRY directive was detected!
 

          ------
          auto-z
          ------
  Looking for out-of-plane bends
 
 
                             Geometry "geometry" -> ""
                             -------------------------
 
 Output coordinates in angstroms (scale by  1.889725989 to convert to a.u.)
 
  No.       Tag          Charge          X              Y              Z
 ---- ---------------- ---------- -------------- -------------- --------------
    1 N                    7.0000    -0.03813296     0.00856326    -0.10751459
    2 H                    1.0000     0.97428659     0.00486962    -0.06114873
    3 H                    1.0000    -0.35367793     0.77823822     0.47144312
    4 H                    1.0000    -0.35367791    -0.84305063     0.34230774
 
      Atomic Mass 
      ----------- 
 
      N                 14.003070
      H                  1.007825
 

 Effective nuclear repulsion energy (a.u.)      11.9409211868

            Nuclear Dipole moment (a.u.) 
            ----------------------------
        X                 Y               Z
 ---------------- ---------------- ----------------
     0.0000000000    -0.0000000000    -0.0000000000
 


                                Z-matrix (autoz)
                                -------- 

 Units are Angstrom for bonds and degrees for angles
 
      Type          Name      I     J     K     L     M      Value
      ----------- --------  ----- ----- ----- ----- ----- ----------
    1 Stretch                  1     2                       1.01349
    2 Stretch                  1     3                       1.01349
    3 Stretch                  1     4                       1.01349
    4 Bend                     2     1     3               106.71736
    5 Bend                     2     1     4               106.71735
    6 Bend                     3     1     4               106.71774
    7 Torsion                  2     1     3     4        -113.81647
    8 Torsion                  2     1     4     3         113.81648
    9 Torsion                  3     1     2     4         113.81674
   10 Torsion                  2     4     1     3        -113.81648
   11 Torsion                  3     2     1     4        -113.81674
   12 Torsion                  2     3     1     4         113.81647
 
 
            XYZ format geometry
            -------------------
     4
 geometry
 N                    -0.03813296     0.00856326    -0.10751459
 H                     0.97428659     0.00486962    -0.06114873
 H                    -0.35367793     0.77823822     0.47144312
 H                    -0.35367791    -0.84305063     0.34230774
 
 ==============================================================================
                                internuclear distances
 ------------------------------------------------------------------------------
       center one      |      center two      | atomic units |  angstroms
 ------------------------------------------------------------------------------
    2 H                |   1 N                |     1.91521  |     1.01349
    3 H                |   1 N                |     1.91522  |     1.01349
    4 H                |   1 N                |     1.91521  |     1.01349
 ------------------------------------------------------------------------------
                         number of included internuclear distances:          3
 ==============================================================================



 ==============================================================================
                                 internuclear angles
 ------------------------------------------------------------------------------
        center 1       |       center 2       |       center 3       |  degrees
 ------------------------------------------------------------------------------
    2 H                |   1 N                |   3 H                |   106.72
    2 H                |   1 N                |   4 H                |   106.72
    3 H                |   1 N                |   4 H                |   106.72
 ------------------------------------------------------------------------------
                            number of included internuclear angles:          3
 ==============================================================================





 Summary of "ao basis" -> "" (spherical)
 ------------------------------------------------------------------------------
       Tag                 Description            Shells   Functions and Types
 ---------------- ------------------------------  ------  ---------------------
 *                          cc-pVTZ                   on all atoms 


 
                                 NWChem DFT Module
                                 -----------------
 
 
                                       None
 
 
                      Basis "ao basis" -> "ao basis" (spherical)
                      -----
  N (Nitrogen)
  ------------
            Exponent  Coefficients 
       -------------- ---------------------------------------------------------
  1 S  1.14200000E+04  0.000523
  1 S  1.71200000E+03  0.004045
  1 S  3.89300000E+02  0.020775
  1 S  1.10000000E+02  0.080727
  1 S  3.55700000E+01  0.233074
  1 S  1.25400000E+01  0.433501
  1 S  4.64400000E+00  0.347472
  1 S  5.11800000E-01 -0.008508
 
  2 S  1.14200000E+04 -0.000115
  2 S  1.71200000E+03 -0.000895
  2 S  3.89300000E+02 -0.004624
  2 S  1.10000000E+02 -0.018528
  2 S  3.55700000E+01 -0.057339
  2 S  1.25400000E+01 -0.132076
  2 S  4.64400000E+00 -0.172510
  2 S  5.11800000E-01  0.599944
 
  3 S  1.29300000E+00  1.000000
 
  4 S  1.78700000E-01  1.000000
 
  5 P  2.66300000E+01  0.014670
  5 P  5.94800000E+00  0.091764
  5 P  1.74200000E+00  0.298683
 
  6 P  5.55000000E-01  1.000000
 
  7 P  1.72500000E-01  1.000000
 
  8 D  1.65400000E+00  1.000000
 
  9 D  4.69000000E-01  1.000000
 
 10 F  1.09300000E+00  1.000000
 
  H (Hydrogen)
  ------------
            Exponent  Coefficients 
       -------------- ---------------------------------------------------------
  1 S  3.38700000E+01  0.006068
  1 S  5.09500000E+00  0.045308
  1 S  1.15900000E+00  0.202822
 
  2 S  3.25800000E-01  1.000000
 
  3 S  1.02700000E-01  1.000000
 
  4 P  1.40700000E+00  1.000000
 
  5 P  3.88000000E-01  1.000000
 
  6 D  1.05700000E+00  1.000000
 


 Summary of "ao basis" -> "ao basis" (spherical)
 ------------------------------------------------------------------------------
       Tag                 Description            Shells   Functions and Types
 ---------------- ------------------------------  ------  ---------------------
 N                          cc-pVTZ                 10       30   4s3p2d1f
 H                          cc-pVTZ                  6       14   3s2p1d




 Summary of "ao basis" -> "ao basis" (spherical)
 ------------------------------------------------------------------------------
       Tag                 Description            Shells   Functions and Types
 ---------------- ------------------------------  ------  ---------------------
 N                          cc-pVTZ                 10       30   4s3p2d1f
 H                          cc-pVTZ                  6       14   3s2p1d


  Caching 1-el integrals 
 
            General Information
            -------------------
          SCF calculation type: DFT
          Wavefunction type:  closed shell.
          No. of atoms     :     4
          No. of electrons :    10
           Alpha electrons :     5
            Beta electrons :     5
          Charge           :     0
          Spin multiplicity:     1
          Use of symmetry is: off; symmetry adaption is: off
          Maximum number of iterations: 500
          AO basis - number of functions:    72
                     number of shells:    28
          Convergence on energy requested:  1.00D-06
          Convergence on density requested:  1.00D-05
          Convergence on gradient requested:  5.00D-04
 
              XC Information
              --------------
                         B3LYP Method XC Potential
                     Hartree-Fock (Exact) Exchange  0.200          
                        Slater Exchange Functional  0.800 local    
                    Becke 1988 Exchange Functional  0.720 non-local
              Lee-Yang-Parr Correlation Functional  0.810          
                  VWN I RPA Correlation Functional  0.190 local    
 
             Grid Information
             ----------------
          Grid used for XC integration:  medium    
          Radial quadrature: Mura-Knowles        
          Angular quadrature: Lebedev. 
          Tag              B.-S. Rad. Rad. Pts. Rad. Cut. Ang. Pts.
          ---              ---------- --------- --------- ---------
          N                   0.65       49           6.0       434
          H                   0.35       45           7.0       434
          Grid pruning is: on 
          Number of quadrature shells:   184
          Spatial weights used:  Erf1
 
          Convergence Information
          -----------------------
          Convergence aids based upon iterative change in 
          total energy or number of iterations. 
          Levelshifting, if invoked, occurs when the 
          HOMO/LUMO gap drops below (HL_TOL):  1.00D-02
          DIIS, if invoked, will attempt to extrapolate 
          using up to (NFOCK): 10 stored Fock matrices.

                    Damping( 0%)  Levelshifting(0.5)       DIIS
                  --------------- ------------------- ---------------
          dE  on:    start            ASAP                start   
          dE off:    2 iters        500 iters           500 iters 

 
      Screening Tolerance Information
      -------------------------------
          Density screening/tol_rho:  1.00D-10
          AO Gaussian exp screening on grid/accAOfunc:  14
          CD Gaussian exp screening on grid/accCDfunc:  20
          XC Gaussian exp screening on grid/accXCfunc:  20
          Schwarz screening/accCoul:  1.00D-08

 
      Superposition of Atomic Density Guess
      -------------------------------------
 
 Sum of atomic energies:         -55.80902699
 
      Non-variational initial energy
      ------------------------------

 Total energy =     -56.218720
 1-e energy   =     -98.198609
 2-e energy   =      30.038967
 HOMO         =      -0.380529
 LUMO         =       0.066658
 
   Time after variat. SCF:      1.5
   Time prior to 1st pass:      1.5

 Integral file          = ./mode1064.40-p.aoints.0
 Record size in doubles =    65536    No. of integs per rec  =    43688
 Max. records in memory =       23    Max. records in file   = ********
 No. of bits per label  =        8    No. of bits per value  =       64


 #quartets = 8.262D+04 #integrals = 3.550D+06 #direct =  0.0% #cached =100.0%


File balance: exchanges=     0  moved=     0  time=   0.0


 Grid_pts file          = ./mode1064.40-p.gridpts.0
 Record size in doubles =  12289        No. of grid_pts per rec  =   3070
 Max. records in memory =      7        Max. recs in file   = *********


           Memory utilization after 1st SCF pass: 
           Heap Space remaining (MW):       63.94            63939622
          Stack Space remaining (MW):       65.54            65535476

   convergence    iter        energy       DeltaE   RMS-Dens  Diis-err    time
 ---------------- ----- ----------------- --------- --------- ---------  ------
 d= 0,ls=0.0,diis     1    -56.5587717120 -6.85D+01  5.64D-03  2.82D-01     1.7
 d= 0,ls=0.0,diis     2    -56.5630533479 -4.28D-03  2.99D-03  2.12D-01     1.7
 d= 0,ls=0.0,diis     3    -56.5823904976 -1.93D-02  7.06D-04  2.45D-02     1.8
 d= 0,ls=0.0,diis     4    -56.5847028536 -2.31D-03  1.15D-04  1.93D-04     1.9
 d= 0,ls=0.0,diis     5    -56.5847232543 -2.04D-05  7.69D-06  9.75D-07     2.0
 d= 0,ls=0.0,diis     6    -56.5847233570 -1.03D-07  1.32D-06  8.22D-09     2.1


         Total DFT energy =      -56.584723356990
      One electron energy =      -99.728575921421
           Coulomb energy =       39.241819601237
    Exchange-Corr. energy =       -8.038888223641
 Nuclear repulsion energy =       11.940921186836

 Numeric. integr. density =       10.000000712506

     Total iterative time =      0.6s


 
                       DFT Final Molecular Orbital Analysis
                       ------------------------------------
 
 Vector    1  Occ=2.000000D+00  E=-1.428909D+01
              MO Center= -3.8D-02,  8.5D-03, -1.1D-01, r^2= 2.0D-02
   Bfn.  Coefficient  Atom+Function         Bfn.  Coefficient  Atom+Function  
  ----- ------------  ---------------      ----- ------------  ---------------
     1      0.975303  1 N  s                  3      0.050639  1 N  s          
 
 Vector    2  Occ=2.000000D+00  E=-8.500527D-01
              MO Center=  2.8D-02, -6.4D-03,  8.0D-02, r^2= 6.9D-01
   Bfn.  Coefficient  Atom+Function         Bfn.  Coefficient  Atom+Function  
  ----- ------------  ---------------      ----- ------------  ---------------
     2      0.449837  1 N  s                  4      0.226591  1 N  s          
     3      0.124642  1 N  s                 31      0.092008  2 H  s          
    45      0.092008  3 H  s                 59      0.092008  4 H  s          
    32      0.081896  2 H  s                 46      0.081895  3 H  s          
    60      0.081896  4 H  s                 10      0.066832  1 N  pz         
 
 Vector    3  Occ=2.000000D+00  E=-4.594418D-01
              MO Center= -1.4D-01, -8.8D-02,  1.0D-01, r^2= 9.8D-01
   Bfn.  Coefficient  Atom+Function         Bfn.  Coefficient  Atom+Function  
  ----- ------------  ---------------      ----- ------------  ---------------
     9      0.284514  1 N  py                 6      0.263935  1 N  py         
    60     -0.244019  4 H  s                 46      0.187628  3 H  s          
    59     -0.166814  4 H  s                 12      0.142581  1 N  py         
    45      0.128264  3 H  s                 61     -0.111748  4 H  s          
    47      0.085924  3 H  s                  8      0.060527  1 N  px         
 
 Vector    4  Occ=2.000000D+00  E=-4.594408D-01
              MO Center=  1.8D-01,  7.9D-02,  5.6D-03, r^2= 9.8D-01
   Bfn.  Coefficient  Atom+Function         Bfn.  Coefficient  Atom+Function  
  ----- ------------  ---------------      ----- ------------  ---------------
     8      0.267486  1 N  px                 5      0.248138  1 N  px         
    32      0.249211  2 H  s                 46     -0.173442  3 H  s          
    31      0.170364  2 H  s                 11      0.134048  1 N  px         
    45     -0.118567  3 H  s                 33      0.114126  2 H  s          
    10     -0.099369  1 N  pz                 7     -0.092181  1 N  pz         
 
 Vector    5  Occ=2.000000D+00  E=-2.651891D-01
              MO Center= -8.4D-02,  1.9D-02, -2.4D-01, r^2= 8.9D-01
   Bfn.  Coefficient  Atom+Function         Bfn.  Coefficient  Atom+Function  
  ----- ------------  ---------------      ----- ------------  ---------------
    13      0.380120  1 N  pz                10      0.343704  1 N  pz         
     7      0.295118  1 N  pz                 4     -0.166909  1 N  s          
     2     -0.165062  1 N  s                 11      0.134818  1 N  px         
     8      0.121902  1 N  px                 5      0.104670  1 N  px         
     3     -0.050316  1 N  s                 31      0.044286  2 H  s          
 
 Vector    6  Occ=0.000000D+00  E= 2.988513D-02
              MO Center=  1.3D-01, -2.9D-02,  3.6D-01, r^2= 4.4D+00
   Bfn.  Coefficient  Atom+Function         Bfn.  Coefficient  Atom+Function  
  ----- ------------  ---------------      ----- ------------  ---------------
     4      2.254014  1 N  s                 33     -0.811991  2 H  s          
    47     -0.811994  3 H  s                 61     -0.811991  4 H  s          
    13      0.461880  1 N  pz                32     -0.368196  2 H  s          
    46     -0.368197  3 H  s                 60     -0.368198  4 H  s          
     2      0.239851  1 N  s                 10      0.192021  1 N  pz         
 
 Vector    7  Occ=0.000000D+00  E= 1.103359D-01
              MO Center= -1.8D-01,  5.2D-01,  5.7D-01, r^2= 4.3D+00
   Bfn.  Coefficient  Atom+Function         Bfn.  Coefficient  Atom+Function  
  ----- ------------  ---------------      ----- ------------  ---------------
    47      1.996839  3 H  s                 61     -1.018541  4 H  s          
    33     -0.978305  2 H  s                 12     -0.872624  1 N  py         
    11      0.470807  1 N  px                 9     -0.249773  1 N  py         
    46      0.247200  3 H  s                 13     -0.236486  1 N  pz         
     6     -0.159641  1 N  py                 8      0.134761  1 N  px         
 
 Vector    8  Occ=0.000000D+00  E= 1.103362D-01
              MO Center=  4.7D-01, -5.9D-01,  2.5D-01, r^2= 4.3D+00
   Bfn.  Coefficient  Atom+Function         Bfn.  Coefficient  Atom+Function  
  ----- ------------  ---------------      ----- ------------  ---------------
    33      1.740934  2 H  s                 61     -1.717706  4 H  s          
    11     -0.837823  1 N  px                12     -0.521310  1 N  py         
    13      0.255631  1 N  pz                 8     -0.239812  1 N  px         
    32      0.215521  2 H  s                 60     -0.212645  4 H  s          
     5     -0.153274  1 N  px                 9     -0.149216  1 N  py         
 
 Vector    9  Occ=0.000000D+00  E= 3.207912D-01
              MO Center= -1.6D-01, -4.4D-02, -9.3D-02, r^2= 2.6D+00
   Bfn.  Coefficient  Atom+Function         Bfn.  Coefficient  Atom+Function  
  ----- ------------  ---------------      ----- ------------  ---------------
    32      1.784693  2 H  s                 11     -1.411761  1 N  px         
    46     -1.210453  3 H  s                 60     -0.574245  4 H  s          
    13      0.522025  1 N  pz                33     -0.342351  2 H  s          
     8     -0.294122  1 N  px                12      0.267584  1 N  py         
    47      0.232205  3 H  s                 23     -0.215458  1 N  d  2       
 
 Vector   10  Occ=0.000000D+00  E= 3.207919D-01
              MO Center=  6.8D-02,  6.5D-02, -1.6D-01, r^2= 2.6D+00
   Bfn.  Coefficient  Atom+Function         Bfn.  Coefficient  Atom+Function  
  ----- ------------  ---------------      ----- ------------  ---------------
    60      1.729257  4 H  s                 12      1.500840  1 N  py         
    46     -1.361934  3 H  s                 32     -0.367318  2 H  s          
    61     -0.331705  4 H  s                  9      0.312680  1 N  py         
    11      0.290566  1 N  px                47      0.261254  3 H  s          
    20      0.211243  1 N  d -1              66      0.180470  4 H  py         
 
 Vector   11  Occ=0.000000D+00  E= 4.249530D-01
              MO Center= -2.9D-02,  6.6D-03, -8.3D-02, r^2= 3.1D+00
   Bfn.  Coefficient  Atom+Function         Bfn.  Coefficient  Atom+Function  
  ----- ------------  ---------------      ----- ------------  ---------------
     4      4.291257  1 N  s                 13      1.838301  1 N  pz         
    32     -0.996971  2 H  s                 46     -0.996984  3 H  s          
    60     -0.996972  4 H  s                 33     -0.741258  2 H  s          
    47     -0.741262  3 H  s                 61     -0.741254  4 H  s          
    11      0.651995  1 N  px                37      0.634342  2 H  px         
 
 Vector   12  Occ=0.000000D+00  E= 4.529663D-01
              MO Center=  1.7D-01, -3.7D-02,  4.7D-01, r^2= 2.1D+00
   Bfn.  Coefficient  Atom+Function         Bfn.  Coefficient  Atom+Function  
  ----- ------------  ---------------      ----- ------------  ---------------
     4      1.201961  1 N  s                 32     -1.114458  2 H  s          
    46     -1.114418  3 H  s                 60     -1.114439  4 H  s          
    13      0.916686  1 N  pz                11      0.325156  1 N  px         
     2      0.299894  1 N  s                 33      0.277837  2 H  s          
    47      0.277863  3 H  s                 61      0.277843  4 H  s          
 
 Vector   13  Occ=0.000000D+00  E= 5.297015D-01
              MO Center= -1.8D-01,  2.2D-01,  7.1D-03, r^2= 3.4D+00
   Bfn.  Coefficient  Atom+Function         Bfn.  Coefficient  Atom+Function  
  ----- ------------  ---------------      ----- ------------  ---------------
    12      2.643520  1 N  py                47     -2.052810  3 H  s          
    46     -1.454036  3 H  s                 11     -1.276695  1 N  px         
    61      1.127700  4 H  s                 33      0.925126  2 H  s          
    52      0.821604  3 H  py                60      0.798765  4 H  s          
    13      0.663363  1 N  pz                32      0.655273  2 H  s          
 
 Vector   14  Occ=0.000000D+00  E= 5.297021D-01
              MO Center=  1.3D-01, -2.1D-01, -1.4D-01, r^2= 3.4D+00
   Bfn.  Coefficient  Atom+Function         Bfn.  Coefficient  Atom+Function  
  ----- ------------  ---------------      ----- ------------  ---------------
    11      2.534123  1 N  px                33     -1.836284  2 H  s          
    61      1.719316  4 H  s                 12      1.420999  1 N  py         
    32     -1.300660  2 H  s                 60      1.217815  4 H  s          
    37      0.909976  2 H  px                66      0.861474  4 H  py         
    13     -0.785607  1 N  pz                23      0.420866  1 N  d  2       
 
 Vector   15  Occ=0.000000D+00  E= 5.714040D-01
              MO Center=  6.3D-02, -1.9D-02,  2.7D-01, r^2= 2.1D+00
   Bfn.  Coefficient  Atom+Function         Bfn.  Coefficient  Atom+Function  
  ----- ------------  ---------------      ----- ------------  ---------------
    47     -0.659340  3 H  s                 38      0.630354  2 H  py         
    61      0.632958  4 H  s                 53      0.493691  3 H  pz         
    67     -0.421612  4 H  pz                65     -0.413016  4 H  px         
    51      0.387294  3 H  px                12      0.352333  1 N  py         
    66      0.284999  4 H  py                19     -0.231874  1 N  d -2       
 
 Vector   16  Occ=0.000000D+00  E= 5.714054D-01
              MO Center=  1.2D-01, -2.2D-02,  2.5D-01, r^2= 2.1D+00
   Bfn.  Coefficient  Atom+Function         Bfn.  Coefficient  Atom+Function  
  ----- ------------  ---------------      ----- ------------  ---------------
    33      0.746066  2 H  s                 39     -0.579241  2 H  pz         
    67      0.507483  4 H  pz                53      0.439489  3 H  pz         
    61     -0.395899  4 H  s                 51     -0.377774  3 H  px         
    47     -0.350188  3 H  s                 65     -0.349468  4 H  px         
    11     -0.333497  1 N  px                37     -0.325020  2 H  px         
 
 Vector   17  Occ=0.000000D+00  E= 6.124521D-01
              MO Center= -1.2D-01,  2.6D-02, -3.3D-01, r^2= 2.8D+00
   Bfn.  Coefficient  Atom+Function         Bfn.  Coefficient  Atom+Function  
  ----- ------------  ---------------      ----- ------------  ---------------
     4      6.333466  1 N  s                 32     -1.637187  2 H  s          
    46     -1.637185  3 H  s                 60     -1.637195  4 H  s          
    37      0.762161  2 H  px                33     -0.752089  2 H  s          
    47     -0.752087  3 H  s                 61     -0.752086  4 H  s          
    53      0.683582  3 H  pz                10      0.646809  1 N  pz         
 
 Vector   18  Occ=0.000000D+00  E= 9.282316D-01
              MO Center=  8.7D-02, -1.9D-02,  2.4D-01, r^2= 2.2D+00
   Bfn.  Coefficient  Atom+Function         Bfn.  Coefficient  Atom+Function  
  ----- ------------  ---------------      ----- ------------  ---------------
    38      0.826746  2 H  py                51     -0.677180  3 H  px         
    65      0.677173  4 H  px                52     -0.432387  3 H  py         
    66     -0.394372  4 H  py                67     -0.271595  4 H  pz         
    53      0.205739  3 H  pz                39      0.065849  2 H  pz         
    35     -0.049560  2 H  py                48      0.040594  3 H  px         
 
 Vector   19  Occ=0.000000D+00  E= 9.496999D-01
              MO Center=  3.7D-02, -8.2D-03,  1.0D-01, r^2= 2.4D+00
   Bfn.  Coefficient  Atom+Function         Bfn.  Coefficient  Atom+Function  
  ----- ------------  ---------------      ----- ------------  ---------------
     4      6.386352  1 N  s                 32     -2.375467  2 H  s          
    46     -2.375451  3 H  s                 60     -2.375474  4 H  s          
    13      2.242988  1 N  pz                11      0.795535  1 N  px         
    39     -0.729752  2 H  pz                10      0.716853  1 N  pz         
    52      0.635326  3 H  py                66     -0.574714  4 H  py         
 
 Vector   20  Occ=0.000000D+00  E= 1.020267D+00
              MO Center= -1.7D-02,  7.1D-03,  1.4D-01, r^2= 2.4D+00
   Bfn.  Coefficient  Atom+Function         Bfn.  Coefficient  Atom+Function  
  ----- ------------  ---------------      ----- ------------  ---------------
    12      1.932278  1 N  py                46     -1.089121  3 H  s          
    60      0.924128  4 H  s                 38     -0.915873  2 H  py         
    67     -0.899445  4 H  pz                53      0.891069  3 H  pz         
    52     -0.451221  3 H  py                66     -0.392350  4 H  py         
     9      0.366141  1 N  py                47     -0.307799  3 H  s          
 
 Vector   21  Occ=0.000000D+00  E= 1.020269D+00
              MO Center=  1.0D-01, -2.6D-02,  9.6D-02, r^2= 2.4D+00
   Bfn.  Coefficient  Atom+Function         Bfn.  Coefficient  Atom+Function  
  ----- ------------  ---------------      ----- ------------  ---------------
    11      1.834446  1 N  px                32     -1.162351  2 H  s          
    39      0.990029  2 H  pz                51     -0.878857  3 H  px         
    65     -0.880128  4 H  px                60      0.724046  4 H  s          
    13     -0.624600  1 N  pz                46      0.438304  3 H  s          
     8      0.347611  1 N  px                52     -0.346345  3 H  py         
 
 Vector   22  Occ=0.000000D+00  E= 1.219217D+00
              MO Center=  3.6D-01,  2.4D-01,  1.2D-01, r^2= 2.2D+00
   Bfn.  Coefficient  Atom+Function         Bfn.  Coefficient  Atom+Function  
  ----- ------------  ---------------      ----- ------------  ---------------
    37      1.467827  2 H  px                 8      0.948610  1 N  px         
    52     -0.940841  3 H  py                33     -0.840951  2 H  s          
    47      0.683759  3 H  s                 53     -0.670304  3 H  pz         
    23     -0.471059  1 N  d  2              32     -0.416743  2 H  s          
    10     -0.363209  1 N  pz                46      0.338858  3 H  s          
 
 Vector   23  Occ=0.000000D+00  E= 1.219219D+00
              MO Center= -2.2D-01, -2.8D-01,  2.8D-01, r^2= 2.2D+00
   Bfn.  Coefficient  Atom+Function         Bfn.  Coefficient  Atom+Function  
  ----- ------------  ---------------      ----- ------------  ---------------
    66      1.281885  4 H  py                 9      1.012606  1 N  py         
    61      0.880287  4 H  s                 52      0.720650  3 H  py         
    67     -0.695278  4 H  pz                53      0.599355  3 H  pz         
    47     -0.576285  3 H  s                 37      0.530632  2 H  px         
    65      0.490519  4 H  px                60      0.436237  4 H  s          
 
 Vector   24  Occ=0.000000D+00  E= 1.345446D+00
              MO Center=  3.0D-03, -6.8D-04,  8.5D-03, r^2= 2.1D+00
   Bfn.  Coefficient  Atom+Function         Bfn.  Coefficient  Atom+Function  
  ----- ------------  ---------------      ----- ------------  ---------------
     4      2.536773  1 N  s                 13      1.188900  1 N  pz         
    52      0.826686  3 H  py                21      0.815694  1 N  d  0       
    66     -0.796941  4 H  py                37      0.764962  2 H  px         
    32     -0.721194  2 H  s                 46     -0.721213  3 H  s          
    60     -0.721180  4 H  s                 39     -0.655396  2 H  pz         
 
 Vector   25  Occ=0.000000D+00  E= 1.516875D+00
              MO Center= -3.8D-02,  4.7D-02, -1.7D-01, r^2= 2.1D+00
   Bfn.  Coefficient  Atom+Function         Bfn.  Coefficient  Atom+Function  
  ----- ------------  ---------------      ----- ------------  ---------------
    60      5.316512  4 H  s                 46     -2.700404  3 H  s          
    32     -2.616122  2 H  s                 12      2.581357  1 N  py         
    66      2.392830  4 H  py                 9      2.269847  1 N  py         
    20      1.685808  1 N  d -1              37      1.379325  2 H  px         
    11      1.359516  1 N  px                 8      1.195461  1 N  px         
 
 Vector   26  Occ=0.000000D+00  E= 1.516876D+00
              MO Center= -7.7D-02, -2.1D-02, -1.6D-01, r^2= 2.1D+00
   Bfn.  Coefficient  Atom+Function         Bfn.  Coefficient  Atom+Function  
  ----- ------------  ---------------      ----- ------------  ---------------
    32      4.628567  2 H  s                 46     -4.579888  3 H  s          
    37     -2.440363  2 H  px                11     -2.405332  1 N  px         
     8     -2.115066  1 N  px                52      1.883225  3 H  py         
    23     -1.654873  1 N  d  2              12      1.369918  1 N  py         
    53      1.271354  3 H  pz                 9      1.204589  1 N  py         
 
 Vector   27  Occ=0.000000D+00  E= 1.548779D+00
              MO Center= -5.5D-03,  1.5D-02, -6.4D-02, r^2= 1.7D+00
   Bfn.  Coefficient  Atom+Function         Bfn.  Coefficient  Atom+Function  
  ----- ------------  ---------------      ----- ------------  ---------------
    19      1.639446  1 N  d -2              38     -1.068371  2 H  py         
    51     -0.736672  3 H  px                12      0.724180  1 N  py         
    20      0.609340  1 N  d -1              67      0.553593  4 H  pz         
    52     -0.508748  3 H  py                22     -0.474856  1 N  d  1       
    66     -0.374989  4 H  py                65      0.360710  4 H  px         
 
 Vector   28  Occ=0.000000D+00  E= 1.548780D+00
              MO Center= -3.7D-02, -5.1D-03, -5.4D-02, r^2= 1.7D+00
   Bfn.  Coefficient  Atom+Function         Bfn.  Coefficient  Atom+Function  
  ----- ------------  ---------------      ----- ------------  ---------------
    22      1.247358  1 N  d  1              23      0.970598  1 N  d  2       
    65      0.851218  4 H  px                21      0.737693  1 N  d  0       
    53     -0.693065  3 H  pz                11     -0.680113  1 N  px         
    51      0.558552  3 H  px                19      0.546660  1 N  d -2       
    39      0.535149  2 H  pz                67     -0.529359  4 H  pz         
 
 Vector   29  Occ=0.000000D+00  E= 1.631324D+00
              MO Center=  9.0D-02, -2.0D-02,  2.5D-01, r^2= 1.8D+00
   Bfn.  Coefficient  Atom+Function         Bfn.  Coefficient  Atom+Function  
  ----- ------------  ---------------      ----- ------------  ---------------
     4      4.778815  1 N  s                 32     -1.725600  2 H  s          
    46     -1.725570  3 H  s                 60     -1.725651  4 H  s          
    37      1.176588  2 H  px                 2      1.082906  1 N  s          
    53      1.026993  3 H  pz                21     -1.004285  1 N  d  0       
    67      0.897042  4 H  pz                66     -0.892572  4 H  py         
 
 Vector   30  Occ=0.000000D+00  E= 2.272050D+00
              MO Center= -1.1D-01, -1.1D-01,  1.7D-01, r^2= 1.5D+00
   Bfn.  Coefficient  Atom+Function         Bfn.  Coefficient  Atom+Function  
  ----- ------------  ---------------      ----- ------------  ---------------
    60      1.877827  4 H  s                 46     -1.365115  3 H  s          
     9      1.127184  1 N  py                59     -0.977840  4 H  s          
    45      0.710855  3 H  s                 61     -0.591381  4 H  s          
    32     -0.512720  2 H  s                 66      0.465690  4 H  py         
    47      0.429910  3 H  s                  6     -0.347585  1 N  py         
 
 Vector   31  Occ=0.000000D+00  E= 2.272050D+00
              MO Center=  1.9D-01,  8.9D-02,  7.4D-02, r^2= 1.5D+00
   Bfn.  Coefficient  Atom+Function         Bfn.  Coefficient  Atom+Function  
  ----- ------------  ---------------      ----- ------------  ---------------
    32      1.872348  2 H  s                 46     -1.380145  3 H  s          
     8     -1.058389  1 N  px                31     -0.974978  2 H  s          
    45      0.718694  3 H  s                 33     -0.589642  2 H  s          
    37     -0.562402  2 H  px                60     -0.492088  4 H  s          
    47      0.434660  3 H  s                 10      0.397414  1 N  pz         
 
 Vector   32  Occ=0.000000D+00  E= 2.338045D+00
              MO Center=  1.1D-01, -2.5D-02,  3.2D-01, r^2= 1.4D+00
   Bfn.  Coefficient  Atom+Function         Bfn.  Coefficient  Atom+Function  
  ----- ------------  ---------------      ----- ------------  ---------------
     4      5.511818  1 N  s                 32     -3.019253  2 H  s          
    46     -3.019297  3 H  s                 60     -3.019291  4 H  s          
    13      1.529522  1 N  pz                37      0.864964  2 H  px         
     2      0.838325  1 N  s                 31      0.766861  2 H  s          
    45      0.766883  3 H  s                 59      0.766877  4 H  s          
 
 Vector   33  Occ=0.000000D+00  E= 3.008229D+00
              MO Center= -2.6D-02,  5.9D-03, -7.3D-02, r^2= 1.1D+00
   Bfn.  Coefficient  Atom+Function         Bfn.  Coefficient  Atom+Function  
  ----- ------------  ---------------      ----- ------------  ---------------
    10      0.896774  1 N  pz                 4      0.597802  1 N  s          
     7     -0.571388  1 N  pz                13     -0.406535  1 N  pz         
    42      0.370004  2 H  d  0               8      0.318064  1 N  px         
    21     -0.303379  1 N  d  0              71     -0.273334  4 H  d  1       
    70      0.253361  4 H  d  0              53      0.250450  3 H  pz         
 
 Vector   34  Occ=0.000000D+00  E= 3.128602D+00
              MO Center= -4.2D-02,  9.4D-03, -1.2D-01, r^2= 1.1D+00
   Bfn.  Coefficient  Atom+Function         Bfn.  Coefficient  Atom+Function  
  ----- ------------  ---------------      ----- ------------  ---------------
     4      5.702657  1 N  s                 32     -2.529762  2 H  s          
    46     -2.529778  3 H  s                 60     -2.529754  4 H  s          
    10      1.670640  1 N  pz                13      1.084932  1 N  pz         
    37      0.948401  2 H  px                 7     -0.921221  1 N  pz         
    66     -0.858167  4 H  py                52      0.817487  3 H  py         
 
 Vector   35  Occ=0.000000D+00  E= 3.148548D+00
              MO Center= -7.2D-02,  2.7D-02,  2.2D-01, r^2= 1.2D+00
   Bfn.  Coefficient  Atom+Function         Bfn.  Coefficient  Atom+Function  
  ----- ------------  ---------------      ----- ------------  ---------------
    46      1.050436  3 H  s                 60     -0.878902  4 H  s          
     9     -0.791252  1 N  py                54      0.388383  3 H  d -2       
    19      0.376562  1 N  d -2              41     -0.313138  2 H  d -1       
    68      0.312987  4 H  d -2               6      0.309199  1 N  py         
    45     -0.303517  3 H  s                 35     -0.295668  2 H  py         
 
 Vector   36  Occ=0.000000D+00  E= 3.148553D+00
              MO Center=  1.9D-01, -5.5D-02,  1.2D-01, r^2= 1.2D+00
   Bfn.  Coefficient  Atom+Function         Bfn.  Coefficient  Atom+Function  
  ----- ------------  ---------------      ----- ------------  ---------------
    32      1.113866  2 H  s                  8     -0.751422  1 N  px         
    60     -0.705641  4 H  s                 46     -0.408316  3 H  s          
    37     -0.355650  2 H  px                31     -0.321835  2 H  s          
    42     -0.311461  2 H  d  0              58     -0.309700  3 H  d  2       
     5      0.293632  1 N  px                23     -0.287972  1 N  d  2       
 
 Vector   37  Occ=0.000000D+00  E= 3.212499D+00
              MO Center=  4.8D-02, -1.1D-02,  1.4D-01, r^2= 1.2D+00
   Bfn.  Coefficient  Atom+Function         Bfn.  Coefficient  Atom+Function  
  ----- ------------  ---------------      ----- ------------  ---------------
    41      0.355520  2 H  d -1              35     -0.305460  2 H  py         
    57      0.303815  3 H  d  1              38      0.290303  2 H  py         
    71     -0.287242  4 H  d  1              24     -0.256663  1 N  f -3       
    48      0.250209  3 H  px                62     -0.250205  4 H  px         
    51     -0.237785  3 H  px                65      0.237785  4 H  px         
 
 Vector   38  Occ=0.000000D+00  E= 3.223227D+00
              MO Center= -3.5D-02, -2.2D-03,  2.9D-01, r^2= 1.3D+00
   Bfn.  Coefficient  Atom+Function         Bfn.  Coefficient  Atom+Function  
  ----- ------------  ---------------      ----- ------------  ---------------
    46      0.848375  3 H  s                 60     -0.773513  4 H  s          
    12     -0.435656  1 N  py                41     -0.408954  2 H  d -1       
    19      0.363293  1 N  d -2              49     -0.347729  3 H  py         
     9     -0.337253  1 N  py                53     -0.301103  3 H  pz         
    63     -0.293717  4 H  py                48      0.278898  3 H  px         
 
 Vector   39  Occ=0.000000D+00  E= 3.223229D+00
              MO Center=  2.1D-01, -3.7D-02,  2.0D-01, r^2= 1.3D+00
   Bfn.  Coefficient  Atom+Function         Bfn.  Coefficient  Atom+Function  
  ----- ------------  ---------------      ----- ------------  ---------------
    32      0.936443  2 H  s                 60     -0.532999  4 H  s          
    11     -0.412918  1 N  px                46     -0.403319  3 H  s          
    42      0.385947  2 H  d  0              36      0.375524  2 H  pz         
    58     -0.359512  3 H  d  2              39     -0.353818  2 H  pz         
    23     -0.342159  1 N  d  2              34     -0.337441  2 H  px         
 
 Vector   40  Occ=0.000000D+00  E= 3.390594D+00
              MO Center=  1.1D-01, -2.5D-02,  3.2D-01, r^2= 1.3D+00
   Bfn.  Coefficient  Atom+Function         Bfn.  Coefficient  Atom+Function  
  ----- ------------  ---------------      ----- ------------  ---------------
    35      0.477347  2 H  py                41      0.414480  2 H  d -1       
    48     -0.390989  3 H  px                62      0.390991  4 H  px         
    38     -0.377921  2 H  py                51      0.309550  3 H  px         
    65     -0.309553  4 H  px                49     -0.249647  3 H  py         
    58     -0.235440  3 H  d  2              57      0.230514  3 H  d  1       
 
 Vector   41  Occ=0.000000D+00  E= 3.446947D+00
              MO Center=  1.6D-01,  2.0D-01,  1.1D-01, r^2= 1.3D+00
   Bfn.  Coefficient  Atom+Function         Bfn.  Coefficient  Atom+Function  
  ----- ------------  ---------------      ----- ------------  ---------------
     8      1.951401  1 N  px                32     -1.835858  2 H  s          
    46      1.820072  3 H  s                 37      1.596886  2 H  px         
    52     -1.230752  3 H  py                 9     -1.115959  1 N  py         
    53     -0.973425  3 H  pz                10     -0.780999  1 N  pz         
     5     -0.719736  1 N  px                11      0.684232  1 N  px         
 
 Vector   42  Occ=0.000000D+00  E= 3.446949D+00
              MO Center= -6.8D-02, -2.2D-01,  1.6D-01, r^2= 1.3D+00
   Bfn.  Coefficient  Atom+Function         Bfn.  Coefficient  Atom+Function  
  ----- ------------  ---------------      ----- ------------  ---------------
    60      2.110760  4 H  s                  9      2.094327  1 N  py         
    66      1.510858  4 H  py                 8      1.107285  1 N  px         
    46     -1.069031  3 H  s                 32     -1.041729  2 H  s          
    67     -0.941860  4 H  pz                37      0.906124  2 H  px         
     6     -0.772448  1 N  py                12      0.734335  1 N  py         
 
 Vector   43  Occ=0.000000D+00  E= 3.470839D+00
              MO Center= -7.5D-03,  5.7D-02,  6.7D-02, r^2= 1.2D+00
   Bfn.  Coefficient  Atom+Function         Bfn.  Coefficient  Atom+Function  
  ----- ------------  ---------------      ----- ------------  ---------------
    46     -0.852152  3 H  s                 12      0.825429  1 N  py         
    11     -0.513362  1 N  px                20      0.513235  1 N  d -1       
    32      0.463108  2 H  s                 60      0.389014  4 H  s          
    38     -0.379589  2 H  py                53      0.362083  3 H  pz         
    56      0.340360  3 H  d  0              35      0.323381  2 H  py         
 
 Vector   44  Occ=0.000000D+00  E= 3.470841D+00
              MO Center=  4.5D-02, -6.5D-02,  3.9D-02, r^2= 1.2D+00
   Bfn.  Coefficient  Atom+Function         Bfn.  Coefficient  Atom+Function  
  ----- ------------  ---------------      ----- ------------  ---------------
    11      0.794293  1 N  px                60      0.759349  4 H  s          
    32     -0.716538  2 H  s                 12      0.565087  1 N  py         
    62      0.389017  4 H  px                36     -0.378323  2 H  pz         
    51     -0.378802  3 H  px                23      0.353688  1 N  d  2       
    20      0.343837  1 N  d -1              22     -0.325020  1 N  d  1       
 
 Vector   45  Occ=0.000000D+00  E= 3.645994D+00
              MO Center=  5.8D-02, -1.4D-02,  2.4D-01, r^2= 1.6D+00
   Bfn.  Coefficient  Atom+Function         Bfn.  Coefficient  Atom+Function  
  ----- ------------  ---------------      ----- ------------  ---------------
    35      0.602448  2 H  py                38     -0.590585  2 H  py         
    53     -0.462334  3 H  pz                62     -0.425305  4 H  px         
    54      0.376909  3 H  d -2              66     -0.359101  4 H  py         
    68      0.355052  4 H  d -2              48      0.351026  3 H  px         
    19      0.347170  1 N  d -2              40      0.346625  2 H  d -2       
 
 Vector   46  Occ=0.000000D+00  E= 3.645997D+00
              MO Center=  1.1D-01, -2.3D-02,  2.2D-01, r^2= 1.6D+00
   Bfn.  Coefficient  Atom+Function         Bfn.  Coefficient  Atom+Function  
  ----- ------------  ---------------      ----- ------------  ---------------
    67      0.474803  4 H  pz                36      0.451248  2 H  pz         
    39     -0.444652  2 H  pz                43     -0.430987  2 H  d  1       
    64     -0.419541  4 H  pz                51     -0.411237  3 H  px         
    37     -0.393821  2 H  px                48      0.384199  3 H  px         
    53      0.364448  3 H  pz                65     -0.344641  4 H  px         
 
 Vector   47  Occ=0.000000D+00  E= 3.669762D+00
              MO Center=  8.1D-02, -1.8D-02,  2.3D-01, r^2= 1.5D+00
   Bfn.  Coefficient  Atom+Function         Bfn.  Coefficient  Atom+Function  
  ----- ------------  ---------------      ----- ------------  ---------------
     4      0.685943  1 N  s                 13      0.632633  1 N  pz         
    36      0.605530  2 H  pz                50      0.601559  3 H  pz         
    64      0.602535  4 H  pz                53     -0.505918  3 H  pz         
    67     -0.503009  4 H  pz                39     -0.493859  2 H  pz         
    32     -0.431111  2 H  s                 46     -0.431106  3 H  s          
 
 Vector   48  Occ=0.000000D+00  E= 3.804232D+00
              MO Center=  4.5D-02, -1.0D-02,  1.3D-01, r^2= 1.7D+00
   Bfn.  Coefficient  Atom+Function         Bfn.  Coefficient  Atom+Function  
  ----- ------------  ---------------      ----- ------------  ---------------
     4      2.355416  1 N  s                 13      0.876987  1 N  pz         
    32     -0.836833  2 H  s                 46     -0.836827  3 H  s          
    60     -0.836813  4 H  s                 10      0.778459  1 N  pz         
    52      0.759570  3 H  py                66     -0.739825  4 H  py         
    37      0.723640  2 H  px                39     -0.556749  2 H  pz         
 
 Vector   49  Occ=0.000000D+00  E= 3.902641D+00
              MO Center=  1.5D-01,  6.3D-03,  1.1D-01, r^2= 1.4D+00
   Bfn.  Coefficient  Atom+Function         Bfn.  Coefficient  Atom+Function  
  ----- ------------  ---------------      ----- ------------  ---------------
    60      2.201558  4 H  s                 46     -2.033822  3 H  s          
     9      1.889840  1 N  py                19     -1.574249  1 N  d -2       
    66      1.265513  4 H  py                52      1.179407  3 H  py         
    20      1.086328  1 N  d -1              38      0.783038  2 H  py         
    40     -0.629265  2 H  d -2               6     -0.472815  1 N  py         
 
 Vector   50  Occ=0.000000D+00  E= 3.902643D+00
              MO Center= -5.1D-02, -2.9D-02,  1.8D-01, r^2= 1.4D+00
   Bfn.  Coefficient  Atom+Function         Bfn.  Coefficient  Atom+Function  
  ----- ------------  ---------------      ----- ------------  ---------------
    32      2.445308  2 H  s                 23     -1.908223  1 N  d  2       
     8     -1.784159  1 N  px                37     -1.389627  2 H  px         
    46     -1.367916  3 H  s                 60     -1.077411  4 H  s          
    51     -0.839512  3 H  px                65     -0.818309  4 H  px         
    10      0.639114  1 N  pz                53      0.495973  3 H  pz         
 
 Vector   51  Occ=0.000000D+00  E= 4.066150D+00
              MO Center= -1.2D-01,  4.0D-03,  2.1D-01, r^2= 1.4D+00
   Bfn.  Coefficient  Atom+Function         Bfn.  Coefficient  Atom+Function  
  ----- ------------  ---------------      ----- ------------  ---------------
    19      0.950591  1 N  d -2               9      0.895748  1 N  py         
    46     -0.883584  3 H  s                 60      0.827413  4 H  s          
    20      0.733658  1 N  d -1              52      0.724032  3 H  py         
    66      0.637186  4 H  py                56      0.588029  3 H  d  0       
    51     -0.575833  3 H  px                65      0.550720  4 H  px         
 
 Vector   52  Occ=0.000000D+00  E= 4.066152D+00
              MO Center=  2.2D-01, -2.7D-02,  8.4D-02, r^2= 1.4D+00
   Bfn.  Coefficient  Atom+Function         Bfn.  Coefficient  Atom+Function  
  ----- ------------  ---------------      ----- ------------  ---------------
    22      0.999314  1 N  d  1              32      0.987861  2 H  s          
     8     -0.848479  1 N  px                39      0.743863  2 H  pz         
    37     -0.740032  2 H  px                43      0.679664  2 H  d  1       
    21      0.605515  1 N  d  0              60     -0.542601  4 H  s          
    70      0.526274  4 H  d  0              66     -0.480937  4 H  py         
 
 Vector   53  Occ=0.000000D+00  E= 4.201862D+00
              MO Center=  1.6D-01,  1.1D-01,  5.5D-02, r^2= 1.4D+00
   Bfn.  Coefficient  Atom+Function         Bfn.  Coefficient  Atom+Function  
  ----- ------------  ---------------      ----- ------------  ---------------
    32      3.277106  2 H  s                 46     -2.665635  3 H  s          
     8     -2.506262  1 N  px                37     -1.902021  2 H  px         
    11     -1.402621  1 N  px                52      1.219337  3 H  py         
    23     -1.125671  1 N  d  2              10      0.959682  1 N  pz         
    53      0.951870  3 H  pz                 9      0.888621  1 N  py         
 
 Vector   54  Occ=0.000000D+00  E= 4.201864D+00
              MO Center= -9.4D-02, -1.2D-01,  1.3D-01, r^2= 1.4D+00
   Bfn.  Coefficient  Atom+Function         Bfn.  Coefficient  Atom+Function  
  ----- ------------  ---------------      ----- ------------  ---------------
    60      3.431040  4 H  s                  9      2.675367  1 N  py         
    46     -2.245091  3 H  s                 66      1.613174  4 H  py         
    12      1.497260  1 N  py                32     -1.185961  2 H  s          
    20      1.103985  1 N  d -1              67     -1.051118  4 H  pz         
     8      0.906992  1 N  px                53      0.890247  3 H  pz         
 
 Vector   55  Occ=0.000000D+00  E= 4.279222D+00
              MO Center=  9.6D-02, -2.1D-02,  2.7D-01, r^2= 1.7D+00
   Bfn.  Coefficient  Atom+Function         Bfn.  Coefficient  Atom+Function  
  ----- ------------  ---------------      ----- ------------  ---------------
    40     -0.639557  2 H  d -2              38      0.611350  2 H  py         
    58     -0.554371  3 H  d  2              72      0.537690  4 H  d  2       
    51     -0.500754  3 H  px                65      0.500756  4 H  px         
    35     -0.395839  2 H  py                68      0.335179  4 H  d -2       
    48      0.324215  3 H  px                62     -0.324218  4 H  px         
 
 Vector   56  Occ=0.000000D+00  E= 4.316287D+00
              MO Center=  1.8D-02, -4.0D-03,  5.1D-02, r^2= 9.1D-01
   Bfn.  Coefficient  Atom+Function         Bfn.  Coefficient  Atom+Function  
  ----- ------------  ---------------      ----- ------------  ---------------
     4      1.363185  1 N  s                 21     -0.877939  1 N  d  0       
     3      0.860125  1 N  s                  2      0.826110  1 N  s          
    32     -0.705824  2 H  s                 46     -0.705720  3 H  s          
    60     -0.705795  4 H  s                 22      0.577472  1 N  d  1       
    16      0.491170  1 N  d  0              30     -0.486329  1 N  f  3       
 
 Vector   57  Occ=0.000000D+00  E= 4.657044D+00
              MO Center=  6.4D-02, -1.4D-02,  1.8D-01, r^2= 1.2D+00
   Bfn.  Coefficient  Atom+Function         Bfn.  Coefficient  Atom+Function  
  ----- ------------  ---------------      ----- ------------  ---------------
    10      1.059581  1 N  pz                21      0.682564  1 N  d  0       
     4      0.664564  1 N  s                 54      0.539439  3 H  d -2       
    68     -0.497125  4 H  d -2              43     -0.485609  2 H  d  1       
    22     -0.448979  1 N  d  1              39     -0.450357  2 H  pz         
    30     -0.430483  1 N  f  3               8      0.375826  1 N  px         
 
 Vector   58  Occ=0.000000D+00  E= 4.838250D+00
              MO Center= -4.9D-03,  1.4D-02, -1.2D-01, r^2= 7.8D-01
   Bfn.  Coefficient  Atom+Function         Bfn.  Coefficient  Atom+Function  
  ----- ------------  ---------------      ----- ------------  ---------------
    22      1.090651  1 N  d  1               8     -0.917043  1 N  px         
    17     -0.814917  1 N  d  1              32      0.767133  2 H  s          
    21      0.703020  1 N  d  0              11     -0.658542  1 N  px         
    16     -0.503544  1 N  d  0              46     -0.428158  3 H  s          
    65      0.400453  4 H  px                51      0.362558  3 H  px         
 
 Vector   59  Occ=0.000000D+00  E= 4.838251D+00
              MO Center= -7.0D-02,  2.8D-03, -9.4D-02, r^2= 7.8D-01
   Bfn.  Coefficient  Atom+Function         Bfn.  Coefficient  Atom+Function  
  ----- ------------  ---------------      ----- ------------  ---------------
     9      0.971326  1 N  py                20      0.938461  1 N  d -1       
    19      0.902360  1 N  d -2              14     -0.807243  1 N  d -2       
    12      0.697525  1 N  py                60      0.690097  4 H  s          
    46     -0.638616  3 H  s                 15     -0.586612  1 N  d -1       
    38     -0.575320  2 H  py                25      0.429098  1 N  f -2       
 
 Vector   60  Occ=0.000000D+00  E= 4.939175D+00
              MO Center=  3.3D-02, -7.5D-03,  9.4D-02, r^2= 9.2D-01
   Bfn.  Coefficient  Atom+Function         Bfn.  Coefficient  Atom+Function  
  ----- ------------  ---------------      ----- ------------  ---------------
    10      0.955845  1 N  pz                21      0.696217  1 N  d  0       
     3      0.645510  1 N  s                 34      0.579493  2 H  px         
    16     -0.536267  1 N  d  0              63     -0.520451  4 H  py         
    49      0.493253  3 H  py                28      0.480747  1 N  f  1       
    53     -0.471456  3 H  pz                22     -0.457924  1 N  d  1       
 
 Vector   61  Occ=0.000000D+00  E= 5.340585D+00
              MO Center= -4.3D-02,  4.8D-02,  1.0D-01, r^2= 1.1D+00
   Bfn.  Coefficient  Atom+Function         Bfn.  Coefficient  Atom+Function  
  ----- ------------  ---------------      ----- ------------  ---------------
     8      1.957110  1 N  px                32     -0.826932  2 H  s          
     9      0.762119  1 N  py                 5     -0.740176  1 N  px         
    60      0.658222  4 H  s                 10     -0.633439  1 N  pz         
    31     -0.556099  2 H  s                 58     -0.547533  3 H  d  2       
    34      0.527508  2 H  px                11      0.501735  1 N  px         
 
 Vector   62  Occ=0.000000D+00  E= 5.340590D+00
              MO Center=  9.4D-02, -6.0D-02,  4.3D-02, r^2= 1.1D+00
   Bfn.  Coefficient  Atom+Function         Bfn.  Coefficient  Atom+Function  
  ----- ------------  ---------------      ----- ------------  ---------------
     9      2.050501  1 N  py                46     -0.857456  3 H  s          
     6     -0.775503  1 N  py                40      0.778787  2 H  d -2       
    20      0.718958  1 N  d -1               8     -0.668849  1 N  px         
    45     -0.576629  3 H  s                 60      0.574845  4 H  s          
    72      0.557691  4 H  d  2              12      0.525683  1 N  py         
 
 Vector   63  Occ=0.000000D+00  E= 5.497626D+00
              MO Center=  4.5D-03, -1.0D-03,  1.3D-02, r^2= 9.3D-01
   Bfn.  Coefficient  Atom+Function         Bfn.  Coefficient  Atom+Function  
  ----- ------------  ---------------      ----- ------------  ---------------
    10      0.816567  1 N  pz                 3     -0.660109  1 N  s          
    16      0.650660  1 N  d  0              43     -0.534295  2 H  d  1       
    69     -0.533180  4 H  d -1               2     -0.507104  1 N  s          
    56      0.453729  3 H  d  0              55      0.448353  3 H  d -1       
     7     -0.430589  1 N  pz                17     -0.427975  1 N  d  1       
 
 Vector   64  Occ=0.000000D+00  E= 5.763124D+00
              MO Center=  7.5D-02,  7.4D-03,  1.1D-01, r^2= 9.6D-01
   Bfn.  Coefficient  Atom+Function         Bfn.  Coefficient  Atom+Function  
  ----- ------------  ---------------      ----- ------------  ---------------
    23      0.860492  1 N  d  2              22      0.815446  1 N  d  1       
    27      0.740316  1 N  f  0              43      0.680725  2 H  d  1       
    28      0.644481  1 N  f  1              32      0.580444  2 H  s          
     8     -0.515783  1 N  px                58      0.502929  3 H  d  2       
    72      0.491071  4 H  d  2              52      0.469472  3 H  py         
 
 Vector   65  Occ=0.000000D+00  E= 5.763128D+00
              MO Center=  9.0D-03, -2.6D-02,  1.3D-01, r^2= 9.6D-01
   Bfn.  Coefficient  Atom+Function         Bfn.  Coefficient  Atom+Function  
  ----- ------------  ---------------      ----- ------------  ---------------
    19      1.247572  1 N  d -2              25      0.716286  1 N  f -2       
    26      0.629218  1 N  f -1              60      0.565899  4 H  s          
    68      0.568209  4 H  d -2               9      0.548518  1 N  py         
    54      0.532049  3 H  d -2              70     -0.532119  4 H  d  0       
    15      0.527506  1 N  d -1              40      0.523720  2 H  d -2       
 
 Vector   66  Occ=0.000000D+00  E= 5.858248D+00
              MO Center=  1.5D-02, -3.4D-03,  4.3D-02, r^2= 1.1D+00
   Bfn.  Coefficient  Atom+Function         Bfn.  Coefficient  Atom+Function  
  ----- ------------  ---------------      ----- ------------  ---------------
     4      2.594875  1 N  s                 32     -1.655066  2 H  s          
    46     -1.655055  3 H  s                 60     -1.655084  4 H  s          
     2      1.477231  1 N  s                 37      1.020769  2 H  px         
    30      0.990947  1 N  f  3              10      0.942948  1 N  pz         
    66     -0.918809  4 H  py                52      0.872103  3 H  py         
 
 Vector   67  Occ=0.000000D+00  E= 5.934813D+00
              MO Center= -3.1D-02,  1.0D-01, -1.3D-02, r^2= 9.7D-01
   Bfn.  Coefficient  Atom+Function         Bfn.  Coefficient  Atom+Function  
  ----- ------------  ---------------      ----- ------------  ---------------
    26      0.891092  1 N  f -1              20      0.842178  1 N  d -1       
    45     -0.717677  3 H  s                 55      0.685463  3 H  d -1       
    29     -0.590688  1 N  f  2              23     -0.547885  1 N  d  2       
    53     -0.533816  3 H  pz                46      0.508408  3 H  s          
    31      0.455549  2 H  s                  9     -0.448471  1 N  py         
 
 Vector   68  Occ=0.000000D+00  E= 5.934817D+00
              MO Center=  1.1D-02, -1.0D-01, -4.4D-02, r^2= 9.7D-01
   Bfn.  Coefficient  Atom+Function         Bfn.  Coefficient  Atom+Function  
  ----- ------------  ---------------      ----- ------------  ---------------
    29      0.907828  1 N  f  2              23      0.816342  1 N  d  2       
    69      0.702405  4 H  d -1              59      0.677365  4 H  s          
    20      0.650135  1 N  d -1              26      0.621391  1 N  f -1       
    31     -0.565713  2 H  s                 37     -0.519530  2 H  px         
    66     -0.488675  4 H  py                43     -0.478243  2 H  d  1       
 
 Vector   69  Occ=0.000000D+00  E= 5.944267D+00
              MO Center= -2.2D-02,  4.8D-03, -6.1D-02, r^2= 9.2D-01
   Bfn.  Coefficient  Atom+Function         Bfn.  Coefficient  Atom+Function  
  ----- ------------  ---------------      ----- ------------  ---------------
    24      1.425865  1 N  f -3              40      0.628060  2 H  d -2       
    25     -0.594533  1 N  f -2              35     -0.459900  2 H  py         
    57      0.429464  3 H  d  1              71     -0.379448  4 H  d  1       
    48      0.376713  3 H  px                62     -0.376753  4 H  px         
    68     -0.346279  4 H  d -2              72     -0.334230  4 H  d  2       
 
 Vector   70  Occ=0.000000D+00  E= 6.795213D+00
              MO Center= -1.3D-01,  9.1D-02,  1.3D-01, r^2= 8.8D-01
   Bfn.  Coefficient  Atom+Function         Bfn.  Coefficient  Atom+Function  
  ----- ------------  ---------------      ----- ------------  ---------------
    46     -3.395795  3 H  s                  9      3.300405  1 N  py         
    60      2.420537  4 H  s                 52      1.255857  3 H  py         
    20      1.097010  1 N  d -1              19     -1.050582  1 N  d -2       
    66      1.037389  4 H  py                49      1.008537  3 H  py         
    32      0.975258  2 H  s                 15      0.938306  1 N  d -1       
 
 Vector   71  Occ=0.000000D+00  E= 6.795218D+00
              MO Center=  1.7D-01, -1.0D-01,  6.0D-03, r^2= 8.8D-01
   Bfn.  Coefficient  Atom+Function         Bfn.  Coefficient  Atom+Function  
  ----- ------------  ---------------      ----- ------------  ---------------
    32     -3.358073  2 H  s                  8      3.145763  1 N  px         
    60      2.523635  4 H  s                 37      1.615133  2 H  px         
    23      1.514805  1 N  d  2              34      1.262197  2 H  px         
    18      1.080485  1 N  d  2               9      1.054273  1 N  py         
    10     -1.031745  1 N  pz                66      0.957951  4 H  py         
 
 Vector   72  Occ=0.000000D+00  E= 1.325732D+01
              MO Center=  4.5D-02, -1.0D-02,  1.3D-01, r^2= 1.1D+00
   Bfn.  Coefficient  Atom+Function         Bfn.  Coefficient  Atom+Function  
  ----- ------------  ---------------      ----- ------------  ---------------
     2      9.220752  1 N  s                  4      7.540846  1 N  s          
     1      5.413662  1 N  s                 32     -4.975858  2 H  s          
    46     -4.975838  3 H  s                 60     -4.975883  4 H  s          
    10      2.928443  1 N  pz                 3     -2.764590  1 N  s          
    37      2.352883  2 H  px                66     -2.002066  4 H  py         
 

 center of mass
 --------------
 x =  -0.02940703 y =   0.00660373 z =  -0.08291211

 moments of inertia (a.u.)
 ------------------
           6.436774073864          -0.086551568865           1.086728491758
          -0.086551568865           6.070748046312          -0.244058307963
           1.086728491758          -0.244058307963           9.115382874313
 
     Multipole analysis of the density
     ---------------------------------
 
     L   x y z        total         alpha         beta         nuclear
     -   - - -        -----         -----         ----         -------
     0   0 0 0     -0.000000     -5.000000     -5.000000     10.000000
 
     1   1 0 0      0.206148      0.103074      0.103074      0.000000
     1   0 1 0     -0.046294     -0.023147     -0.023147     -0.000000
     1   0 0 1      0.581230      0.290615      0.290615     -0.000000
 
     2   2 0 0     -4.865675     -4.592598     -4.592598      4.319521
     2   1 1 0      0.051529     -0.019554     -0.019554      0.090638
     2   1 0 1     -0.646972      0.245533      0.245533     -1.138038
     2   0 2 0     -4.647769     -4.675298     -4.675298      4.702828
     2   0 1 1      0.145294     -0.055143     -0.055143      0.255580
     2   0 0 2     -6.460351     -3.987398     -3.987398      1.514446
 

 Parallel integral file used      83 records with       0 large values

                                NWChem TDDFT Module
                                -------------------
 
 
                                       None
 
 
            General Information
            -------------------
           No. of orbitals :     144
            Alpha orbitals :      72
             Beta orbitals :      72
        Alpha frozen cores :       0
         Beta frozen cores :       0
     Alpha frozen virtuals :       0
      Beta frozen virtuals :       0
         Spin multiplicity :       1
    Number of AO functions :      72
        Use of symmetry is : off
      Symmetry adaption is : off
         Schwarz screening :  0.10D-07
 
              XC Information
              --------------
                  B3LYP Method XC Potential
              Hartree-Fock (Exact) Exchange   0.20          
                 Slater Exchange Functional   0.80 local    
             Becke 1988 Exchange Functional   0.72 non-local
       Lee-Yang-Parr Correlation Functional   0.81          
           VWN I RPA Correlation Functional   0.19 local    
 
             TDDFT Information
             -----------------
          Calculation type : TDDFT             
         Wavefunction type : Restricted singlets
          No. of electrons :      10
           Alpha electrons :       5
            Beta electrons :       5
              No. of roots :       4
          Max subspacesize :    4800
            Max iterations :     100
               Target root :       1
           Target symmetry : none
      Symmetry restriction : off
                 Algorithm : Optimal
        Davidson threshold :  0.10D-03
 
            Memory Information
            ------------------
          Available GA space size is         655354816 doubles
          Available MA space size is         131068756 doubles
          Length of a trial vector is          335
          Algorithm : Incore multiple tensor contraction
          Estimated peak GA usage is           6621304 doubles
          Estimated peak MA usage is             11600 doubles
 
    4 smallest eigenvalue differences (eV) 
--------------------------------------------------------
  No. Spin  Occ  Vir  Irrep   E(Occ)    E(Vir)   E(Diff)
--------------------------------------------------------
    1    1    5    6 a        -0.265     0.030     8.029
    2    1    5    7 a        -0.265     0.110    10.219
    3    1    5    8 a        -0.265     0.110    10.219
    4    1    4    6 a        -0.459     0.030    13.315
--------------------------------------------------------

  Entering Davidson iterations
  Restricted singlet excited states

  Iter   NTrls   NConv    DeltaV     DeltaE      Time   
  ----  ------  ------  ---------  ---------  --------- 
    1      4       0     0.12E+00   0.10+100        0.7
    2     12       0     0.51E-01   0.33E-02        1.0
    3     20       0     0.10E-01   0.35E-03        1.0
    4     28       0     0.26E-02   0.21E-04        1.0
    5     36       0     0.67E-03   0.16E-05        1.0
    6     44       1     0.12E-03   0.83E-07        1.0
    7     50       4     0.26E-04   0.35E-08        0.9
  ----  ------  ------  ---------  ---------  --------- 
  Convergence criterion met
 
  Ground state a         -56.584723356990 a.u.
 
  ----------------------------------------------------------------------------
  Root   1 singlet a              0.246272639 a.u.                6.7014 eV 
  ----------------------------------------------------------------------------
     Transition Moments    X -0.18605   Y  0.04178   Z -0.52458
     Transition Moments   XX -0.20629  XY -0.00104  XZ  0.01303
     Transition Moments   YY -0.21068  YZ -0.00293  ZZ -0.17418
     Dipole Oscillator Strength                    0.0511502795
     Electric Quadrupole                           0.0000000000
     Magnetic Dipole                               0.0000000000
     Total Oscillator Strength                     0.0511502796
 
     Occ.    5  a   ---  Virt.    6  a   -0.99923 X
  ----------------------------------------------------------------------------
  Root   2 singlet a              0.323081914 a.u.                8.7915 eV 
  ----------------------------------------------------------------------------
     Transition Moments    X  0.15358   Y -0.25058   Z -0.07443
     Transition Moments   XX  0.27264  XY -0.06937  XZ  0.22086
     Transition Moments   YY  0.00227  YZ -0.50233  ZZ -0.27491
     Dipole Oscillator Strength                    0.0197982431
     Electric Quadrupole                           0.0000000684
     Magnetic Dipole                               0.0000001146
     Total Oscillator Strength                     0.0197984261
 
     Occ.    5  a   ---  Virt.    7  a    0.99689 X
     Occ.    5  a   ---  Virt.    8  a   -0.05516 X
  ----------------------------------------------------------------------------
  Root   3 singlet a              0.323082190 a.u.                8.7915 eV 
  ----------------------------------------------------------------------------
     Transition Moments    X  0.24107   Y  0.16915   Z -0.07203
     Transition Moments   XX  0.42795  XY  0.00466  XZ  0.35571
     Transition Moments   YY -0.17735  YZ  0.34005  ZZ -0.25060
     Dipole Oscillator Strength                    0.0197980718
     Electric Quadrupole                           0.0000000684
     Magnetic Dipole                               0.0000001146
     Total Oscillator Strength                     0.0197982549
 
     Occ.    5  a   ---  Virt.    7  a   -0.05516 X
     Occ.    5  a   ---  Virt.    8  a   -0.99689 X
  ----------------------------------------------------------------------------
  Root   4 singlet a              0.443091024 a.u.               12.0571 eV 
  ----------------------------------------------------------------------------
     Transition Moments    X -0.70312   Y  0.14836   Z  0.26120
     Transition Moments   XX -0.71890  XY -0.06503  XZ -0.16828
     Transition Moments   YY  0.49194  YZ  0.15046  ZZ  0.22697
     Dipole Oscillator Strength                    0.1726914359
     Electric Quadrupole                           0.0000002133
     Magnetic Dipole                               0.0000000242
     Total Oscillator Strength                     0.1726916734
 
     Occ.    4  a   ---  Virt.    6  a   -0.99810 X
 
              Target root =      1
          Target symmetry = none
      Ground state energy =    -56.584723356990
        Excitation energy =      0.246272639030
     Excited state energy =    -56.338450717959
 
  stored tddft:energy   -56.3384507179591     

 Task  times  cpu:        7.2s     wall:        7.6s
 
 
                                NWChem Input Module
                                -------------------
 
 
 Summary of allocated global arrays
-----------------------------------
  No active global arrays



                         GA Statistics for process    0
                         ------------------------------

       create   destroy   get      put      acc     scatter   gather  read&inc
calls:  722      722     1.34e+05 2.78e+04 1.22e+05  274        0      120     
number of processes/call 1.37e+00 1.92e+00 1.31e+00 0.00e+00 0.00e+00
bytes total:             1.38e+08 1.35e+07 1.71e+08 8.64e+03 0.00e+00 9.60e+02
bytes remote:            1.07e+08 4.05e+06 1.50e+08 0.00e+00 0.00e+00 0.00e+00
Max memory consumed for GA by this process: 8238208 bytes
 
MA_summarize_allocated_blocks: starting scan ...
MA_summarize_allocated_blocks: scan completed: 0 heap blocks, 0 stack blocks
MA usage statistics:

	allocation statistics:
					      heap	     stack
					      ----	     -----
	current number of blocks	         0	         0
	maximum number of blocks	        21	        52
	current total bytes		         0	         0
	maximum total bytes		  12770192	  23334840
	maximum total K-bytes		     12771	     23335
	maximum total M-bytes		        13	        24
 
 
                                     CITATION
                                     --------
                Please cite the following reference when publishing
                           results obtained with NWChem:
 
                 M. Valiev, E.J. Bylaska, N. Govind, K. Kowalski,
              T.P. Straatsma, H.J.J. van Dam, D. Wang, J. Nieplocha,
                        E. Apra, T.L. Windus, W.A. de Jong
                 "NWChem: a comprehensive and scalable open-source
                  solution for large scale molecular simulations"
                      Comput. Phys. Commun. 181, 1477 (2010)
                           doi:10.1016/j.cpc.2010.04.018
 
                                      AUTHORS
                                      -------
          E. Apra, E. J. Bylaska, W. A. de Jong, N. Govind, K. Kowalski,
       T. P. Straatsma, M. Valiev, H. J. J. van Dam, D. Wang, T. L. Windus,
        J. Hammond, J. Autschbach, K. Bhaskaran-Nair, J. Brabec, K. Lopata,
    S. A. Fischer, S. Krishnamoorthy, M. Jacquelin, W. Ma, M. Klemm, O. Villa,
      Y. Chen, V. Anisimov, F. Aquino, S. Hirata, M. T. Hackler, V. Konjkov,
            D. Mejia-Rodriguez, T. Risthaus, M. Malagoli, A. Marenich,
   A. Otero-de-la-Roza, J. Mullin, P. Nichols, R. Peverati, J. Pittner, Y. Zhao,
        P.-D. Fan, A. Fonari, M. J. Williamson, R. J. Harrison, J. R. Rehr,
      M. Dupuis, D. Silverstein, D. M. A. Smith, J. Nieplocha, V. Tipparaju,
    M. Krishnan, B. E. Van Kuiken, A. Vazquez-Mayagoitia, L. Jensen, M. Swart,
      Q. Wu, T. Van Voorhis, A. A. Auer, M. Nooijen, L. D. Crosby, E. Brown,
      G. Cisneros, G. I. Fann, H. Fruchtl, J. Garza, K. Hirao, R. A. Kendall,
      J. A. Nichols, K. Tsemekhman, K. Wolinski, J. Anchell, D. E. Bernholdt,
      P. Borowski, T. Clark, D. Clerc, H. Dachsel, M. J. O. Deegan, K. Dyall,
    D. Elwood, E. Glendening, M. Gutowski, A. C. Hess, J. Jaffe, B. G. Johnson,
     J. Ju, R. Kobayashi, R. Kutteh, Z. Lin, R. Littlefield, X. Long, B. Meng,
      T. Nakajima, S. Niu, L. Pollack, M. Rosing, K. Glaesemann, G. Sandrone,
      M. Stave, H. Taylor, G. Thomas, J. H. van Lenthe, A. T. Wong, Z. Zhang.

 Total times  cpu:        7.2s     wall:        8.8s
