 argument  1 = /storage/work/j/jbb5516/nwchemwork/capstone/tdspecStuff/normalModes/mode1676.51_b-m.nw
 


============================== echo of input deck ==============================
echo
start

memory stack 500 mb heap 500 mb global 1000 mb

title "None"

geometry
N    -0.03828464    0.00893447   -0.10852962
H     0.97420298    0.00144890   -0.05965386
H    -0.35567870    0.77552914    0.47389877
H    -0.35185833   -0.84154608    0.34577127
symmetry c1
end

basis spherical
 * library "cc-pVTZ"
end

driver
 maxiter 100
end

dft
 iterations 500
 xc b3lyp
end

tddft
 nroots 4
 notriplet
end

task tddft energy
================================================================================


                                         
                                         
 
 
              Northwest Computational Chemistry Package (NWChem) 6.8
              ------------------------------------------------------
 
 
                    Environmental Molecular Sciences Laboratory
                       Pacific Northwest National Laboratory
                                Richland, WA 99352
 
                              Copyright (c) 1994-2017
                       Pacific Northwest National Laboratory
                            Battelle Memorial Institute
 
             NWChem is an open-source computational chemistry package
                        distributed under the terms of the
                      Educational Community License (ECL) 2.0
             A copy of the license is included with this distribution
                              in the LICENSE.TXT file
 
                                  ACKNOWLEDGMENT
                                  --------------

            This software and its documentation were developed at the
            EMSL at Pacific Northwest National Laboratory, a multiprogram
            national laboratory, operated for the U.S. Department of Energy
            by Battelle under Contract Number DE-AC05-76RL01830. Support
            for this work was provided by the Department of Energy Office
            of Biological and Environmental Research, Office of Basic
            Energy Sciences, and the Office of Advanced Scientific Computing.


           Job information
           ---------------

    hostname        = comp-sc-0232.acib.production.int.aci.ics.psu.edu
    program         = /gpfs/group/lxj18/default/jeffprograms/nwchem-6.8.1/bin/LINUX64/nwchem
    date            = Wed Aug  5 21:01:37 2020

    compiled        = Wed_Oct_03_14:08:39_2018
    source          = /gpfs/group/lxj18/default/jeffprograms/nwchem-6.8.1
    nwchem branch   = 6.8.1
    nwchem revision = v6.8-143-gdb0d964
    ga revision     = 5.6.5
    use scalapack   = F
    input           = /storage/work/j/jbb5516/nwchemwork/capstone/tdspecStuff/normalModes/mode1676.51_b-m.nw
    prefix          = mode1676.51_b-m.
    data base       = ./mode1676.51_b-m.db
    status          = startup
    nproc           =        5
    time left       =     -1s



           Memory information
           ------------------

    heap     =   65535998 doubles =    500.0 Mbytes
    stack    =   65535995 doubles =    500.0 Mbytes
    global   =  131072000 doubles =   1000.0 Mbytes (distinct from heap & stack)
    total    =  262143993 doubles =   2000.0 Mbytes
    verify   = yes
    hardfail = no 


           Directory information
           ---------------------
 
  0 permanent = .
  0 scratch   = .
 
 
 
 
                                NWChem Input Module
                                -------------------
 
 
                                       None
                                       ----

 Scaling coordinates for geometry "geometry" by  1.889725989
 (inverse scale =  0.529177249)

 Turning off AUTOSYM since
 SYMMETRY directive was detected!
 

          ------
          auto-z
          ------
  Looking for out-of-plane bends
 
 
                             Geometry "geometry" -> ""
                             -------------------------
 
 Output coordinates in angstroms (scale by  1.889725989 to convert to a.u.)
 
  No.       Tag          Charge          X              Y              Z
 ---- ---------------- ---------- -------------- -------------- --------------
    1 N                    7.0000    -0.03815199     0.00913714    -0.10856050
    2 H                    1.0000     0.97433563     0.00165157    -0.05968474
    3 H                    1.0000    -0.35554605     0.77573182     0.47386789
    4 H                    1.0000    -0.35172568    -0.84134341     0.34574039
 
      Atomic Mass 
      ----------- 
 
      N                 14.003070
      H                  1.007825
 

 Effective nuclear repulsion energy (a.u.)      11.9389184695

            Nuclear Dipole moment (a.u.) 
            ----------------------------
        X                 Y               Z
 ---------------- ---------------- ----------------
     0.0000000000    -0.0000000000     0.0000000000
 


                                Z-matrix (autoz)
                                -------- 

 Units are Angstrom for bonds and degrees for angles
 
      Type          Name      I     J     K     L     M      Value
      ----------- --------  ----- ----- ----- ----- ----- ----------
    1 Stretch                  1     2                       1.01369
    2 Stretch                  1     3                       1.01372
    3 Stretch                  1     4                       1.01392
    4 Bend                     2     1     3               106.89435
    5 Bend                     2     1     4               106.32603
    6 Bend                     3     1     4               106.26350
    7 Torsion                  2     1     3     4        -113.24292
    8 Torsion                  2     1     4     3         113.63397
    9 Torsion                  3     1     2     4         113.20031
   10 Torsion                  2     4     1     3        -113.63397
   11 Torsion                  3     2     1     4        -113.20031
   12 Torsion                  2     3     1     4         113.24292
 
 
            XYZ format geometry
            -------------------
     4
 geometry
 N                    -0.03815199     0.00913714    -0.10856050
 H                     0.97433563     0.00165157    -0.05968474
 H                    -0.35554605     0.77573181     0.47386789
 H                    -0.35172568    -0.84134341     0.34574039
 
 ==============================================================================
                                internuclear distances
 ------------------------------------------------------------------------------
       center one      |      center two      | atomic units |  angstroms
 ------------------------------------------------------------------------------
    2 H                |   1 N                |     1.91560  |     1.01369
    3 H                |   1 N                |     1.91565  |     1.01372
    4 H                |   1 N                |     1.91603  |     1.01392
 ------------------------------------------------------------------------------
                         number of included internuclear distances:          3
 ==============================================================================



 ==============================================================================
                                 internuclear angles
 ------------------------------------------------------------------------------
        center 1       |       center 2       |       center 3       |  degrees
 ------------------------------------------------------------------------------
    2 H                |   1 N                |   3 H                |   106.89
    2 H                |   1 N                |   4 H                |   106.33
    3 H                |   1 N                |   4 H                |   106.26
 ------------------------------------------------------------------------------
                            number of included internuclear angles:          3
 ==============================================================================





 Summary of "ao basis" -> "" (spherical)
 ------------------------------------------------------------------------------
       Tag                 Description            Shells   Functions and Types
 ---------------- ------------------------------  ------  ---------------------
 *                          cc-pVTZ                   on all atoms 


 
                                 NWChem DFT Module
                                 -----------------
 
 
                                       None
 
 
                      Basis "ao basis" -> "ao basis" (spherical)
                      -----
  N (Nitrogen)
  ------------
            Exponent  Coefficients 
       -------------- ---------------------------------------------------------
  1 S  1.14200000E+04  0.000523
  1 S  1.71200000E+03  0.004045
  1 S  3.89300000E+02  0.020775
  1 S  1.10000000E+02  0.080727
  1 S  3.55700000E+01  0.233074
  1 S  1.25400000E+01  0.433501
  1 S  4.64400000E+00  0.347472
  1 S  5.11800000E-01 -0.008508
 
  2 S  1.14200000E+04 -0.000115
  2 S  1.71200000E+03 -0.000895
  2 S  3.89300000E+02 -0.004624
  2 S  1.10000000E+02 -0.018528
  2 S  3.55700000E+01 -0.057339
  2 S  1.25400000E+01 -0.132076
  2 S  4.64400000E+00 -0.172510
  2 S  5.11800000E-01  0.599944
 
  3 S  1.29300000E+00  1.000000
 
  4 S  1.78700000E-01  1.000000
 
  5 P  2.66300000E+01  0.014670
  5 P  5.94800000E+00  0.091764
  5 P  1.74200000E+00  0.298683
 
  6 P  5.55000000E-01  1.000000
 
  7 P  1.72500000E-01  1.000000
 
  8 D  1.65400000E+00  1.000000
 
  9 D  4.69000000E-01  1.000000
 
 10 F  1.09300000E+00  1.000000
 
  H (Hydrogen)
  ------------
            Exponent  Coefficients 
       -------------- ---------------------------------------------------------
  1 S  3.38700000E+01  0.006068
  1 S  5.09500000E+00  0.045308
  1 S  1.15900000E+00  0.202822
 
  2 S  3.25800000E-01  1.000000
 
  3 S  1.02700000E-01  1.000000
 
  4 P  1.40700000E+00  1.000000
 
  5 P  3.88000000E-01  1.000000
 
  6 D  1.05700000E+00  1.000000
 


 Summary of "ao basis" -> "ao basis" (spherical)
 ------------------------------------------------------------------------------
       Tag                 Description            Shells   Functions and Types
 ---------------- ------------------------------  ------  ---------------------
 N                          cc-pVTZ                 10       30   4s3p2d1f
 H                          cc-pVTZ                  6       14   3s2p1d




 Summary of "ao basis" -> "ao basis" (spherical)
 ------------------------------------------------------------------------------
       Tag                 Description            Shells   Functions and Types
 ---------------- ------------------------------  ------  ---------------------
 N                          cc-pVTZ                 10       30   4s3p2d1f
 H                          cc-pVTZ                  6       14   3s2p1d


  Caching 1-el integrals 
 
            General Information
            -------------------
          SCF calculation type: DFT
          Wavefunction type:  closed shell.
          No. of atoms     :     4
          No. of electrons :    10
           Alpha electrons :     5
            Beta electrons :     5
          Charge           :     0
          Spin multiplicity:     1
          Use of symmetry is: off; symmetry adaption is: off
          Maximum number of iterations: 500
          AO basis - number of functions:    72
                     number of shells:    28
          Convergence on energy requested:  1.00D-06
          Convergence on density requested:  1.00D-05
          Convergence on gradient requested:  5.00D-04
 
              XC Information
              --------------
                         B3LYP Method XC Potential
                     Hartree-Fock (Exact) Exchange  0.200          
                        Slater Exchange Functional  0.800 local    
                    Becke 1988 Exchange Functional  0.720 non-local
              Lee-Yang-Parr Correlation Functional  0.810          
                  VWN I RPA Correlation Functional  0.190 local    
 
             Grid Information
             ----------------
          Grid used for XC integration:  medium    
          Radial quadrature: Mura-Knowles        
          Angular quadrature: Lebedev. 
          Tag              B.-S. Rad. Rad. Pts. Rad. Cut. Ang. Pts.
          ---              ---------- --------- --------- ---------
          N                   0.65       49           6.0       434
          H                   0.35       45           7.0       434
          Grid pruning is: on 
          Number of quadrature shells:   184
          Spatial weights used:  Erf1
 
          Convergence Information
          -----------------------
          Convergence aids based upon iterative change in 
          total energy or number of iterations. 
          Levelshifting, if invoked, occurs when the 
          HOMO/LUMO gap drops below (HL_TOL):  1.00D-02
          DIIS, if invoked, will attempt to extrapolate 
          using up to (NFOCK): 10 stored Fock matrices.

                    Damping( 0%)  Levelshifting(0.5)       DIIS
                  --------------- ------------------- ---------------
          dE  on:    start            ASAP                start   
          dE off:    2 iters        500 iters           500 iters 

 
      Screening Tolerance Information
      -------------------------------
          Density screening/tol_rho:  1.00D-10
          AO Gaussian exp screening on grid/accAOfunc:  14
          CD Gaussian exp screening on grid/accCDfunc:  20
          XC Gaussian exp screening on grid/accXCfunc:  20
          Schwarz screening/accCoul:  1.00D-08

 
      Superposition of Atomic Density Guess
      -------------------------------------
 
 Sum of atomic energies:         -55.80902699
 
      Non-variational initial energy
      ------------------------------

 Total energy =     -56.218527
 1-e energy   =     -98.195744
 2-e energy   =      30.038299
 HOMO         =      -0.381295
 LUMO         =       0.066652
 
   Time after variat. SCF:      0.4
   Time prior to 1st pass:      0.4

 Integral file          = ./mode1676.51_b-m.aoints.0
 Record size in doubles =    65536    No. of integs per rec  =    43688
 Max. records in memory =       23    Max. records in file   = ********
 No. of bits per label  =        8    No. of bits per value  =       64


 #quartets = 8.262D+04 #integrals = 3.590D+06 #direct =  0.0% #cached =100.0%


File balance: exchanges=     2  moved=     1  time=   0.0


 Grid_pts file          = ./mode1676.51_b-m.gridpts.0
 Record size in doubles =  12289        No. of grid_pts per rec  =   3070
 Max. records in memory =      7        Max. recs in file   = 609386740


           Memory utilization after 1st SCF pass: 
           Heap Space remaining (MW):       63.94            63939622
          Stack Space remaining (MW):       65.54            65535476

   convergence    iter        energy       DeltaE   RMS-Dens  Diis-err    time
 ---------------- ----- ----------------- --------- --------- ---------  ------
 d= 0,ls=0.0,diis     1    -56.5587415552 -6.85D+01  5.64D-03  2.82D-01     0.6
 d= 0,ls=0.0,diis     2    -56.5630232310 -4.28D-03  2.99D-03  2.12D-01     0.7
 d= 0,ls=0.0,diis     3    -56.5823797935 -1.94D-02  7.07D-04  2.45D-02     0.8
 d= 0,ls=0.0,diis     4    -56.5846992716 -2.32D-03  1.14D-04  1.95D-04     0.8
 d= 0,ls=0.0,diis     5    -56.5847198588 -2.06D-05  7.78D-06  9.78D-07     0.9
 d= 0,ls=0.0,diis     6    -56.5847199622 -1.03D-07  1.33D-06  8.34D-09     1.0


         Total DFT energy =      -56.584719962213
      One electron energy =      -99.723690046796
           Coulomb energy =       39.238642705700
    Exchange-Corr. energy =       -8.038591090570
 Nuclear repulsion energy =       11.938918469452

 Numeric. integr. density =        9.999999680989

     Total iterative time =      0.6s


 
                       DFT Final Molecular Orbital Analysis
                       ------------------------------------
 
 Vector    1  Occ=2.000000D+00  E=-1.428937D+01
              MO Center= -3.8D-02,  9.1D-03, -1.1D-01, r^2= 2.0D-02
   Bfn.  Coefficient  Atom+Function         Bfn.  Coefficient  Atom+Function  
  ----- ------------  ---------------      ----- ------------  ---------------
     1      0.975296  1 N  s                  3      0.050638  1 N  s          
 
 Vector    2  Occ=2.000000D+00  E=-8.503578D-01
              MO Center=  2.8D-02, -7.0D-03,  8.1D-02, r^2= 6.9D-01
   Bfn.  Coefficient  Atom+Function         Bfn.  Coefficient  Atom+Function  
  ----- ------------  ---------------      ----- ------------  ---------------
     2      0.449641  1 N  s                  4      0.226198  1 N  s          
     3      0.124600  1 N  s                 31      0.091975  2 H  s          
    45      0.091987  3 H  s                 59      0.092099  4 H  s          
    32      0.081940  2 H  s                 46      0.081961  3 H  s          
    60      0.082158  4 H  s                 10      0.067323  1 N  pz         
 
 Vector    3  Occ=2.000000D+00  E=-4.598937D-01
              MO Center=  1.2D-01,  1.5D-01,  3.2D-02, r^2= 9.8D-01
   Bfn.  Coefficient  Atom+Function         Bfn.  Coefficient  Atom+Function  
  ----- ------------  ---------------      ----- ------------  ---------------
     8      0.243352  1 N  px                32      0.226937  2 H  s          
     5      0.225803  1 N  px                46     -0.215422  3 H  s          
    31      0.155078  2 H  s                 45     -0.147186  3 H  s          
     9     -0.126539  1 N  py                11      0.121724  1 N  px         
     6     -0.117415  1 N  py                33      0.103749  2 H  s          
 
 Vector    4  Occ=2.000000D+00  E=-4.583240D-01
              MO Center= -8.0D-02, -1.6D-01,  7.9D-02, r^2= 9.8D-01
   Bfn.  Coefficient  Atom+Function         Bfn.  Coefficient  Atom+Function  
  ----- ------------  ---------------      ----- ------------  ---------------
     9      0.261286  1 N  py                60     -0.255612  4 H  s          
     6      0.242213  1 N  py                59     -0.174421  4 H  s          
    46      0.137367  3 H  s                 12      0.131341  1 N  py         
     8      0.126183  1 N  px                61     -0.117668  4 H  s          
     5      0.116956  1 N  px                32      0.117279  2 H  s          
 
 Vector    5  Occ=2.000000D+00  E=-2.657840D-01
              MO Center= -8.4D-02,  1.9D-02, -2.4D-01, r^2= 8.9D-01
   Bfn.  Coefficient  Atom+Function         Bfn.  Coefficient  Atom+Function  
  ----- ------------  ---------------      ----- ------------  ---------------
    13      0.379356  1 N  pz                10      0.343235  1 N  pz         
     7      0.294682  1 N  pz                 4     -0.168414  1 N  s          
     2     -0.166430  1 N  s                 11      0.134896  1 N  px         
     8      0.122203  1 N  px                 5      0.104908  1 N  px         
     3     -0.050723  1 N  s                 31      0.044730  2 H  s          
 
 Vector    6  Occ=0.000000D+00  E= 2.974946D-02
              MO Center=  1.3D-01, -3.2D-02,  3.6D-01, r^2= 4.4D+00
   Bfn.  Coefficient  Atom+Function         Bfn.  Coefficient  Atom+Function  
  ----- ------------  ---------------      ----- ------------  ---------------
     4      2.253442  1 N  s                 33     -0.811527  2 H  s          
    47     -0.811559  3 H  s                 61     -0.811777  4 H  s          
    13      0.466272  1 N  pz                32     -0.369107  2 H  s          
    46     -0.368948  3 H  s                 60     -0.367515  4 H  s          
     2      0.239161  1 N  s                 10      0.193598  1 N  pz         
 
 Vector    7  Occ=0.000000D+00  E= 1.102003D-01
              MO Center=  5.0D-01,  5.1D-01,  3.3D-01, r^2= 4.3D+00
   Bfn.  Coefficient  Atom+Function         Bfn.  Coefficient  Atom+Function  
  ----- ------------  ---------------      ----- ------------  ---------------
    33      1.770697  2 H  s                 47     -1.681671  3 H  s          
    11     -0.852126  1 N  px                12      0.444056  1 N  py         
    13      0.337729  1 N  pz                 8     -0.243907  1 N  px         
    32      0.218395  2 H  s                 46     -0.207433  3 H  s          
     5     -0.156054  1 N  px                 9      0.127103  1 N  py         
 
 Vector    8  Occ=0.000000D+00  E= 1.103333D-01
              MO Center= -2.1D-01, -5.8D-01,  4.9D-01, r^2= 4.3D+00
   Bfn.  Coefficient  Atom+Function         Bfn.  Coefficient  Atom+Function  
  ----- ------------  ---------------      ----- ------------  ---------------
    61      1.995257  4 H  s                 47     -1.075561  3 H  s          
    33     -0.921457  2 H  s                 12      0.911200  1 N  py         
    11      0.441187  1 N  px                 9      0.261648  1 N  py         
    60      0.246808  4 H  s                  6      0.167597  1 N  py         
    46     -0.132931  3 H  s                  8      0.126714  1 N  px         
 
 Vector    9  Occ=0.000000D+00  E= 3.199468D-01
              MO Center=  2.7D-02,  1.2D-01, -1.4D-01, r^2= 2.6D+00
   Bfn.  Coefficient  Atom+Function         Bfn.  Coefficient  Atom+Function  
  ----- ------------  ---------------      ----- ------------  ---------------
    60      1.810421  4 H  s                 12      1.359362  1 N  py         
    46     -0.980423  3 H  s                 32     -0.841114  2 H  s          
    11      0.658197  1 N  px                61     -0.358000  4 H  s          
     9      0.283475  1 N  py                47      0.198338  3 H  s          
    20      0.188987  1 N  d -1              66      0.178669  4 H  py         
 
 Vector   10  Occ=0.000000D+00  E= 3.212589D-01
              MO Center= -1.2D-01, -9.7D-02, -1.2D-01, r^2= 2.6D+00
   Bfn.  Coefficient  Atom+Function         Bfn.  Coefficient  Atom+Function  
  ----- ------------  ---------------      ----- ------------  ---------------
    32      1.619174  2 H  s                 46     -1.537360  3 H  s          
    11     -1.283627  1 N  px                12      0.669345  1 N  py         
    13      0.508924  1 N  pz                33     -0.308005  2 H  s          
    47      0.291694  3 H  s                  8     -0.267179  1 N  px         
    23     -0.188761  1 N  d  2              37     -0.187596  2 H  px         
 
 Vector   11  Occ=0.000000D+00  E= 4.243667D-01
              MO Center= -3.2D-02,  4.8D-03, -8.5D-02, r^2= 3.1D+00
   Bfn.  Coefficient  Atom+Function         Bfn.  Coefficient  Atom+Function  
  ----- ------------  ---------------      ----- ------------  ---------------
     4      4.323473  1 N  s                 13      1.860702  1 N  pz         
    32     -1.021010  2 H  s                 46     -1.019897  3 H  s          
    60     -1.009970  4 H  s                 33     -0.739382  2 H  s          
    47     -0.739482  3 H  s                 61     -0.740535  4 H  s          
    11      0.660605  1 N  px                37      0.637376  2 H  px         
 
 Vector   12  Occ=0.000000D+00  E= 4.538529D-01
              MO Center=  1.7D-01, -3.3D-02,  4.7D-01, r^2= 2.1D+00
   Bfn.  Coefficient  Atom+Function         Bfn.  Coefficient  Atom+Function  
  ----- ------------  ---------------      ----- ------------  ---------------
     4      1.139085  1 N  s                 60     -1.124166  4 H  s          
    32     -1.085549  2 H  s                 46     -1.089437  3 H  s          
    13      0.903375  1 N  pz                 2      0.301637  1 N  s          
    11      0.299856  1 N  px                33      0.292617  2 H  s          
    47      0.291064  3 H  s                 61      0.277146  4 H  s          
 
 Vector   13  Occ=0.000000D+00  E= 5.293969D-01
              MO Center=  1.2D-01,  2.4D-01, -1.0D-01, r^2= 3.4D+00
   Bfn.  Coefficient  Atom+Function         Bfn.  Coefficient  Atom+Function  
  ----- ------------  ---------------      ----- ------------  ---------------
    11      2.509399  1 N  px                33     -1.809679  2 H  s          
    47      1.723244  3 H  s                 12     -1.312696  1 N  py         
    32     -1.286171  2 H  s                 46      1.224962  3 H  s          
    13     -0.994820  1 N  pz                37      0.897135  2 H  px         
    52     -0.824267  3 H  py                23      0.374667  1 N  d  2       
 
 Vector   14  Occ=0.000000D+00  E= 5.298100D-01
              MO Center= -1.8D-01, -2.4D-01, -2.9D-02, r^2= 3.4D+00
   Bfn.  Coefficient  Atom+Function         Bfn.  Coefficient  Atom+Function  
  ----- ------------  ---------------      ----- ------------  ---------------
    12      2.691484  1 N  py                61      2.063648  4 H  s          
    60      1.458456  4 H  s                 11      1.308155  1 N  px         
    47     -1.100969  3 H  s                 33     -0.947261  2 H  s          
    66      0.890240  4 H  py                46     -0.776508  3 H  s          
    32     -0.667951  2 H  s                 51     -0.507056  3 H  px         
 
 Vector   15  Occ=0.000000D+00  E= 5.700127D-01
              MO Center=  1.1D-01, -7.7D-05,  2.6D-01, r^2= 2.1D+00
   Bfn.  Coefficient  Atom+Function         Bfn.  Coefficient  Atom+Function  
  ----- ------------  ---------------      ----- ------------  ---------------
    33      0.693312  2 H  s                 47     -0.655411  3 H  s          
    53      0.627193  3 H  pz                65     -0.502600  4 H  px         
    39     -0.485162  2 H  pz                11     -0.337697  1 N  px         
    38      0.330058  2 H  py                37     -0.302351  2 H  px         
    66      0.291429  4 H  py                23     -0.238094  1 N  d  2       
 
 Vector   16  Occ=0.000000D+00  E= 5.717599D-01
              MO Center=  7.7D-02, -4.2D-02,  2.6D-01, r^2= 2.1D+00
   Bfn.  Coefficient  Atom+Function         Bfn.  Coefficient  Atom+Function  
  ----- ------------  ---------------      ----- ------------  ---------------
    61      0.721786  4 H  s                 67     -0.609455  4 H  pz         
    38      0.540282  2 H  py                51      0.521476  3 H  px         
    47     -0.406540  3 H  s                 33     -0.349624  2 H  s          
    52      0.311639  3 H  py                39      0.309925  2 H  pz         
    12      0.301455  1 N  py                53      0.217235  3 H  pz         
 
 Vector   17  Occ=0.000000D+00  E= 6.128535D-01
              MO Center= -1.2D-01,  2.2D-02, -3.2D-01, r^2= 2.8D+00
   Bfn.  Coefficient  Atom+Function         Bfn.  Coefficient  Atom+Function  
  ----- ------------  ---------------      ----- ------------  ---------------
     4      6.289741  1 N  s                 32     -1.625917  2 H  s          
    46     -1.625012  3 H  s                 60     -1.616533  4 H  s          
    37      0.757806  2 H  px                33     -0.748782  2 H  s          
    47     -0.748522  3 H  s                 61     -0.746499  4 H  s          
    53      0.686873  3 H  pz                10      0.643936  1 N  pz         
 
 Vector   18  Occ=0.000000D+00  E= 9.288440D-01
              MO Center=  9.1D-02, -1.4D-02,  2.5D-01, r^2= 2.2D+00
   Bfn.  Coefficient  Atom+Function         Bfn.  Coefficient  Atom+Function  
  ----- ------------  ---------------      ----- ------------  ---------------
    38      0.832731  2 H  py                51     -0.686917  3 H  px         
    65      0.670220  4 H  px                52     -0.430626  3 H  py         
    66     -0.389703  4 H  py                67     -0.267730  4 H  pz         
    53      0.198593  3 H  pz                39      0.076296  2 H  pz         
    35     -0.049933  2 H  py                48      0.041141  3 H  px         
 
 Vector   19  Occ=0.000000D+00  E= 9.478519D-01
              MO Center=  3.7D-02, -5.2D-03,  1.0D-01, r^2= 2.4D+00
   Bfn.  Coefficient  Atom+Function         Bfn.  Coefficient  Atom+Function  
  ----- ------------  ---------------      ----- ------------  ---------------
     4      6.458574  1 N  s                 32     -2.403637  2 H  s          
    46     -2.403023  3 H  s                 60     -2.398268  4 H  s          
    13      2.263152  1 N  pz                11      0.803910  1 N  px         
    10      0.725938  1 N  pz                39     -0.726406  2 H  pz         
    52      0.634733  3 H  py                66     -0.580308  4 H  py         
 
 Vector   20  Occ=0.000000D+00  E= 1.019508D+00
              MO Center=  7.7D-02,  3.8D-02,  1.1D-01, r^2= 2.4D+00
   Bfn.  Coefficient  Atom+Function         Bfn.  Coefficient  Atom+Function  
  ----- ------------  ---------------      ----- ------------  ---------------
    11      1.642651  1 N  px                32     -1.041788  2 H  s          
    46      0.988259  3 H  s                 39      0.935661  2 H  pz         
    12     -0.848854  1 N  py                65     -0.792350  4 H  px         
    51     -0.778764  3 H  px                13     -0.651838  1 N  pz         
    53     -0.611218  3 H  pz                66      0.442714  4 H  py         
 
 Vector   21  Occ=0.000000D+00  E= 1.020946D+00
              MO Center=  6.1D-03, -6.2D-02,  1.3D-01, r^2= 2.4D+00
   Bfn.  Coefficient  Atom+Function         Bfn.  Coefficient  Atom+Function  
  ----- ------------  ---------------      ----- ------------  ---------------
    12      1.749925  1 N  py                60      1.175521  4 H  s          
    67     -0.921147  4 H  pz                38     -0.865800  2 H  py         
    11      0.837231  1 N  px                53      0.669367  3 H  pz         
    46     -0.622572  3 H  s                 52     -0.571174  3 H  py         
    32     -0.525773  2 H  s                 65     -0.407076  4 H  px         
 
 Vector   22  Occ=0.000000D+00  E= 1.217918D+00
              MO Center= -1.4D-01, -3.4D-01,  2.5D-01, r^2= 2.2D+00
   Bfn.  Coefficient  Atom+Function         Bfn.  Coefficient  Atom+Function  
  ----- ------------  ---------------      ----- ------------  ---------------
    66      1.308877  4 H  py                 9      0.954874  1 N  py         
    61      0.892158  4 H  s                 37      0.721903  2 H  px         
    67     -0.697343  4 H  pz                52      0.598292  3 H  py         
    53      0.502389  3 H  pz                65      0.487560  4 H  px         
    47     -0.483650  3 H  s                  8      0.462271  1 N  px         
 
 Vector   23  Occ=0.000000D+00  E= 1.219391D+00
              MO Center=  2.9D-01,  3.1D-01,  1.5D-01, r^2= 2.2D+00
   Bfn.  Coefficient  Atom+Function         Bfn.  Coefficient  Atom+Function  
  ----- ------------  ---------------      ----- ------------  ---------------
    37      1.385228  2 H  px                52     -1.026935  3 H  py         
     8      0.895674  1 N  px                33     -0.791837  2 H  s          
    47      0.751274  3 H  s                 53     -0.742665  3 H  pz         
     9     -0.466243  1 N  py                23     -0.441525  1 N  d  2       
    32     -0.391695  2 H  s                 46      0.370577  3 H  s          
 
 Vector   24  Occ=0.000000D+00  E= 1.347392D+00
              MO Center=  2.5D-03, -2.0D-03,  9.6D-03, r^2= 2.1D+00
   Bfn.  Coefficient  Atom+Function         Bfn.  Coefficient  Atom+Function  
  ----- ------------  ---------------      ----- ------------  ---------------
     4      2.602410  1 N  s                 13      1.206883  1 N  pz         
    52      0.827650  3 H  py                21      0.816211  1 N  d  0       
    66     -0.810872  4 H  py                37      0.772121  2 H  px         
    60     -0.758615  4 H  s                 32     -0.740041  2 H  s          
    46     -0.741915  3 H  s                 39     -0.651328  2 H  pz         
 
 Vector   25  Occ=0.000000D+00  E= 1.516929D+00
              MO Center= -7.9D-02, -1.6D-02, -1.7D-01, r^2= 2.1D+00
   Bfn.  Coefficient  Atom+Function         Bfn.  Coefficient  Atom+Function  
  ----- ------------  ---------------      ----- ------------  ---------------
    32      4.704961  2 H  s                 46     -4.466347  3 H  s          
    11     -2.467087  1 N  px                37     -2.472749  2 H  px         
     8     -2.148211  1 N  px                52      1.835175  3 H  py         
    23     -1.663480  1 N  d  2              12      1.283866  1 N  py         
    53      1.230774  3 H  pz                 9      1.117922  1 N  py         
 
 Vector   26  Occ=0.000000D+00  E= 1.517840D+00
              MO Center= -4.1D-02,  4.4D-02, -1.7D-01, r^2= 2.1D+00
   Bfn.  Coefficient  Atom+Function         Bfn.  Coefficient  Atom+Function  
  ----- ------------  ---------------      ----- ------------  ---------------
    60      5.310906  4 H  s                 46     -2.861424  3 H  s          
    12      2.632430  1 N  py                32     -2.446598  2 H  s          
    66      2.384363  4 H  py                 9      2.301224  1 N  py         
    20      1.744279  1 N  d -1              37      1.289344  2 H  px         
    11      1.274193  1 N  px                52      1.165196  3 H  py         
 
 Vector   27  Occ=0.000000D+00  E= 1.547394D+00
              MO Center= -3.3D-02, -1.4D-02, -4.9D-02, r^2= 1.7D+00
   Bfn.  Coefficient  Atom+Function         Bfn.  Coefficient  Atom+Function  
  ----- ------------  ---------------      ----- ------------  ---------------
    22      1.109559  1 N  d  1              23      0.957520  1 N  d  2       
    65      0.904425  4 H  px                19      0.866143  1 N  d -2       
    53     -0.772044  3 H  pz                21      0.683493  1 N  d  0       
    11     -0.559067  1 N  px                38     -0.533737  2 H  py         
    66     -0.507537  4 H  py                39      0.474468  2 H  pz         
 
 Vector   28  Occ=0.000000D+00  E= 1.547877D+00
              MO Center= -6.2D-03,  1.9D-02, -5.5D-02, r^2= 1.7D+00
   Bfn.  Coefficient  Atom+Function         Bfn.  Coefficient  Atom+Function  
  ----- ------------  ---------------      ----- ------------  ---------------
    19      1.522922  1 N  d -2              38     -0.983244  2 H  py         
    51     -0.816791  3 H  px                67      0.693021  4 H  pz         
    22     -0.687427  1 N  d  1              12      0.601239  1 N  py         
    52     -0.582395  3 H  py                20      0.554425  1 N  d -1       
    60     -0.436029  4 H  s                 23     -0.425473  1 N  d  2       
 
 Vector   29  Occ=0.000000D+00  E= 1.629686D+00
              MO Center=  9.2D-02, -1.7D-02,  2.5D-01, r^2= 1.8D+00
   Bfn.  Coefficient  Atom+Function         Bfn.  Coefficient  Atom+Function  
  ----- ------------  ---------------      ----- ------------  ---------------
     4      4.728593  1 N  s                 32     -1.726156  2 H  s          
    46     -1.721312  3 H  s                 60     -1.676859  4 H  s          
    37      1.180406  2 H  px                 2      1.079868  1 N  s          
    53      1.034514  3 H  pz                21     -0.996225  1 N  d  0       
    67      0.883694  4 H  pz                66     -0.867293  4 H  py         
 
 Vector   30  Occ=0.000000D+00  E= 2.271217D+00
              MO Center=  1.4D-01,  1.4D-01,  9.9D-02, r^2= 1.5D+00
   Bfn.  Coefficient  Atom+Function         Bfn.  Coefficient  Atom+Function  
  ----- ------------  ---------------      ----- ------------  ---------------
    32      1.708868  2 H  s                 46     -1.636527  3 H  s          
     8     -0.971781  1 N  px                31     -0.894427  2 H  s          
    45      0.853726  3 H  s                 33     -0.544667  2 H  s          
    47      0.517641  3 H  s                 37     -0.513682  2 H  px         
     9      0.508424  1 N  py                10      0.386613  1 N  pz         
 
 Vector   31  Occ=0.000000D+00  E= 2.272108D+00
              MO Center= -6.2D-02, -1.7D-01,  1.5D-01, r^2= 1.4D+00
   Bfn.  Coefficient  Atom+Function         Bfn.  Coefficient  Atom+Function  
  ----- ------------  ---------------      ----- ------------  ---------------
    60      1.968859  4 H  s                  9      1.036067  1 N  py         
    59     -1.020499  4 H  s                 46     -0.991645  3 H  s          
    32     -0.847745  2 H  s                 61     -0.614709  4 H  s          
    45      0.531381  3 H  s                  8      0.499858  1 N  px         
    66      0.494268  4 H  py                31      0.455953  2 H  s          
 
 Vector   32  Occ=0.000000D+00  E= 2.340701D+00
              MO Center=  1.2D-01, -1.9D-02,  3.2D-01, r^2= 1.4D+00
   Bfn.  Coefficient  Atom+Function         Bfn.  Coefficient  Atom+Function  
  ----- ------------  ---------------      ----- ------------  ---------------
     4      5.517486  1 N  s                 32     -3.039231  2 H  s          
    46     -3.034505  3 H  s                 60     -2.988822  4 H  s          
    13      1.544306  1 N  pz                37      0.868373  2 H  px         
     2      0.830647  1 N  s                 31      0.775900  2 H  s          
    45      0.773791  3 H  s                 59      0.752951  4 H  s          
 
 Vector   33  Occ=0.000000D+00  E= 3.004796D+00
              MO Center= -2.4D-02,  2.6D-03, -6.4D-02, r^2= 1.1D+00
   Bfn.  Coefficient  Atom+Function         Bfn.  Coefficient  Atom+Function  
  ----- ------------  ---------------      ----- ------------  ---------------
    10      0.861041  1 N  pz                 7     -0.551903  1 N  pz         
     4      0.478943  1 N  s                 13     -0.428853  1 N  pz         
    42      0.371031  2 H  d  0               8      0.304437  1 N  px         
    21     -0.298393  1 N  d  0              71     -0.277414  4 H  d  1       
    70      0.255694  4 H  d  0              57     -0.248330  3 H  d  1       
 
 Vector   34  Occ=0.000000D+00  E= 3.130472D+00
              MO Center= -4.4D-02,  1.1D-02, -1.3D-01, r^2= 1.1D+00
   Bfn.  Coefficient  Atom+Function         Bfn.  Coefficient  Atom+Function  
  ----- ------------  ---------------      ----- ------------  ---------------
     4      5.763884  1 N  s                 32     -2.549964  2 H  s          
    46     -2.553036  3 H  s                 60     -2.558589  4 H  s          
    10      1.699080  1 N  pz                13      1.099252  1 N  pz         
    37      0.957845  2 H  px                 7     -0.931562  1 N  pz         
    66     -0.870671  4 H  py                52      0.821003  3 H  py         
 
 Vector   35  Occ=0.000000D+00  E= 3.144436D+00
              MO Center=  1.4D-01,  1.1D-01,  1.5D-01, r^2= 1.2D+00
   Bfn.  Coefficient  Atom+Function         Bfn.  Coefficient  Atom+Function  
  ----- ------------  ---------------      ----- ------------  ---------------
    32      1.025434  2 H  s                 46     -0.952377  3 H  s          
     8     -0.685446  1 N  px                 9      0.356607  1 N  py         
    37     -0.331163  2 H  px                31     -0.295008  2 H  s          
    45      0.278521  3 H  s                 54     -0.270920  3 H  d -2       
    72     -0.269963  4 H  d  2               5      0.267904  1 N  px         
 
 Vector   36  Occ=0.000000D+00  E= 3.150982D+00
              MO Center= -1.8D-02, -1.4D-01,  1.9D-01, r^2= 1.2D+00
   Bfn.  Coefficient  Atom+Function         Bfn.  Coefficient  Atom+Function  
  ----- ------------  ---------------      ----- ------------  ---------------
    60      1.061268  4 H  s                  9      0.716605  1 N  py         
    46     -0.665004  3 H  s                 32     -0.579135  2 H  s          
     8      0.364693  1 N  px                68     -0.348013  4 H  d -2       
    19     -0.329751  1 N  d -2              59     -0.321103  4 H  s          
    66      0.284910  4 H  py                 6     -0.279011  1 N  py         
 
 Vector   37  Occ=0.000000D+00  E= 3.212706D+00
              MO Center=  6.1D-02,  8.5D-03,  1.4D-01, r^2= 1.2D+00
   Bfn.  Coefficient  Atom+Function         Bfn.  Coefficient  Atom+Function  
  ----- ------------  ---------------      ----- ------------  ---------------
    41      0.369586  2 H  d -1              57      0.320568  3 H  d  1       
    35     -0.303426  2 H  py                38      0.290512  2 H  py         
    71     -0.279157  4 H  d  1              24     -0.256671  1 N  f -3       
    62     -0.249851  4 H  px                65      0.237795  4 H  px         
    48      0.231968  3 H  px                51     -0.232280  3 H  px         
 
 Vector   38  Occ=0.000000D+00  E= 3.224507D+00
              MO Center=  1.6D-01,  7.7D-02,  2.4D-01, r^2= 1.3D+00
   Bfn.  Coefficient  Atom+Function         Bfn.  Coefficient  Atom+Function  
  ----- ------------  ---------------      ----- ------------  ---------------
    32      0.811036  2 H  s                 46     -0.788632  3 H  s          
    42      0.377405  2 H  d  0              72     -0.376518  4 H  d  2       
    11     -0.364003  1 N  px                36      0.332759  2 H  pz         
    49      0.329394  3 H  py                39     -0.315637  2 H  pz         
    23     -0.296930  1 N  d  2              34     -0.295195  2 H  px         
 
 Vector   39  Occ=0.000000D+00  E= 3.227254D+00
              MO Center=  1.4D-02, -1.3D-01,  2.7D-01, r^2= 1.3D+00
   Bfn.  Coefficient  Atom+Function         Bfn.  Coefficient  Atom+Function  
  ----- ------------  ---------------      ----- ------------  ---------------
    60      0.996830  4 H  s                 46     -0.432965  3 H  s          
    41      0.395948  2 H  d -1              12      0.384524  1 N  py         
    63      0.372082  4 H  py                58      0.367961  3 H  d  2       
    32     -0.363620  2 H  s                 67     -0.345088  4 H  pz         
    19     -0.318095  1 N  d -2               9      0.307886  1 N  py         
 
 Vector   40  Occ=0.000000D+00  E= 3.392701D+00
              MO Center=  1.1D-01, -3.2D-02,  3.2D-01, r^2= 1.3D+00
   Bfn.  Coefficient  Atom+Function         Bfn.  Coefficient  Atom+Function  
  ----- ------------  ---------------      ----- ------------  ---------------
    35      0.481651  2 H  py                41      0.407970  2 H  d -1       
    48     -0.391018  3 H  px                62      0.388497  4 H  px         
    38     -0.383536  2 H  py                51      0.311086  3 H  px         
    65     -0.305369  4 H  px                49     -0.256720  3 H  py         
    71     -0.233967  4 H  d  1              58     -0.229744  3 H  d  2       
 
 Vector   41  Occ=0.000000D+00  E= 3.444498D+00
              MO Center= -7.9D-02, -2.0D-01,  1.6D-01, r^2= 1.3D+00
   Bfn.  Coefficient  Atom+Function         Bfn.  Coefficient  Atom+Function  
  ----- ------------  ---------------      ----- ------------  ---------------
     9      2.130644  1 N  py                60      2.133221  4 H  s          
    66      1.495419  4 H  py                46     -1.154534  3 H  s          
     8      1.032179  1 N  px                32     -0.988915  2 H  s          
    67     -0.965862  4 H  pz                37      0.846329  2 H  px         
     6     -0.789518  1 N  py                12      0.779286  1 N  py         
 
 Vector   42  Occ=0.000000D+00  E= 3.446729D+00
              MO Center=  1.8D-01,  1.9D-01,  1.1D-01, r^2= 1.3D+00
   Bfn.  Coefficient  Atom+Function         Bfn.  Coefficient  Atom+Function  
  ----- ------------  ---------------      ----- ------------  ---------------
     8      1.992506  1 N  px                32     -1.878429  2 H  s          
    46      1.783005  3 H  s                 37      1.630472  2 H  px         
    52     -1.205220  3 H  py                 9     -1.037863  1 N  py         
    53     -0.957715  3 H  pz                10     -0.789318  1 N  pz         
     5     -0.734443  1 N  px                11      0.706640  1 N  px         
 
 Vector   43  Occ=0.000000D+00  E= 3.467869D+00
              MO Center=  6.0D-02,  4.5D-02,  4.4D-02, r^2= 1.2D+00
   Bfn.  Coefficient  Atom+Function         Bfn.  Coefficient  Atom+Function  
  ----- ------------  ---------------      ----- ------------  ---------------
    11      0.843484  1 N  px                32     -0.744506  2 H  s          
    46      0.674546  3 H  s                 36     -0.437204  2 H  pz         
    48      0.403483  3 H  px                65     -0.398390  4 H  px         
    12     -0.395929  1 N  py                62      0.362698  4 H  px         
    22     -0.351651  1 N  d  1              13     -0.330824  1 N  pz         
 
 Vector   44  Occ=0.000000D+00  E= 3.468012D+00
              MO Center= -2.2D-02, -5.8D-02,  6.8D-02, r^2= 1.2D+00
   Bfn.  Coefficient  Atom+Function         Bfn.  Coefficient  Atom+Function  
  ----- ------------  ---------------      ----- ------------  ---------------
    12      0.872709  1 N  py                60      0.747494  4 H  s          
    20      0.556351  1 N  d -1              46     -0.442546  3 H  s          
    38     -0.424756  2 H  py                11      0.380534  1 N  px         
    35      0.380367  2 H  py                70     -0.345166  4 H  d  0       
    49      0.341558  3 H  py                64      0.333199  4 H  pz         
 
 Vector   45  Occ=0.000000D+00  E= 3.643634D+00
              MO Center=  9.2D-02,  6.7D-03,  2.3D-01, r^2= 1.6D+00
   Bfn.  Coefficient  Atom+Function         Bfn.  Coefficient  Atom+Function  
  ----- ------------  ---------------      ----- ------------  ---------------
    53      0.563250  3 H  pz                62      0.478327  4 H  px         
    65     -0.473520  4 H  px                50     -0.455310  3 H  pz         
    36      0.373772  2 H  pz                39     -0.369149  2 H  pz         
    43     -0.367274  2 H  d  1              37     -0.345705  2 H  px         
    35     -0.304656  2 H  py                38      0.298441  2 H  py         
 
 Vector   46  Occ=0.000000D+00  E= 3.646677D+00
              MO Center=  4.1D-02, -9.4D-02,  2.4D-01, r^2= 1.6D+00
   Bfn.  Coefficient  Atom+Function         Bfn.  Coefficient  Atom+Function  
  ----- ------------  ---------------      ----- ------------  ---------------
    67      0.568553  4 H  pz                35      0.518175  2 H  py         
    38     -0.503569  2 H  py                48      0.482761  3 H  px         
    64     -0.480900  4 H  pz                51     -0.431870  3 H  px         
    69      0.349958  4 H  d -1              54      0.328749  3 H  d -2       
    52     -0.326095  3 H  py                68      0.308416  4 H  d -2       
 
 Vector   47  Occ=0.000000D+00  E= 3.666620D+00
              MO Center=  1.1D-01,  2.8D-02,  2.2D-01, r^2= 1.5D+00
   Bfn.  Coefficient  Atom+Function         Bfn.  Coefficient  Atom+Function  
  ----- ------------  ---------------      ----- ------------  ---------------
     4      0.652227  1 N  s                 36      0.626432  2 H  pz         
    13      0.619131  1 N  pz                50      0.600292  3 H  pz         
    64      0.559216  4 H  pz                39     -0.513857  2 H  pz         
    53     -0.511241  3 H  pz                67     -0.453655  4 H  pz         
    60     -0.425566  4 H  s                 32     -0.414162  2 H  s          
 
 Vector   48  Occ=0.000000D+00  E= 3.804489D+00
              MO Center=  4.1D-02, -1.8D-02,  1.3D-01, r^2= 1.7D+00
   Bfn.  Coefficient  Atom+Function         Bfn.  Coefficient  Atom+Function  
  ----- ------------  ---------------      ----- ------------  ---------------
     4      2.376846  1 N  s                 13      0.888048  1 N  pz         
    60     -0.868414  4 H  s                 32     -0.834752  2 H  s          
    46     -0.838224  3 H  s                 10      0.795656  1 N  pz         
    52      0.753243  3 H  py                66     -0.753354  4 H  py         
    37      0.718014  2 H  px                39     -0.556358  2 H  pz         
 
 Vector   49  Occ=0.000000D+00  E= 3.898656D+00
              MO Center= -9.1D-03, -1.0D-01,  1.6D-01, r^2= 1.4D+00
   Bfn.  Coefficient  Atom+Function         Bfn.  Coefficient  Atom+Function  
  ----- ------------  ---------------      ----- ------------  ---------------
    32      2.135865  2 H  s                 46     -2.023432  3 H  s          
    23     -1.654685  1 N  d  2               8     -1.554713  1 N  px         
    37     -1.211484  2 H  px                 9      0.808606  1 N  py         
    51     -0.801716  3 H  px                19     -0.743517  1 N  d -2       
    52      0.714534  3 H  py                65     -0.666584  4 H  px         
 
 Vector   50  Occ=0.000000D+00  E= 3.900854D+00
              MO Center=  1.2D-01,  8.8D-02,  1.3D-01, r^2= 1.4D+00
   Bfn.  Coefficient  Atom+Function         Bfn.  Coefficient  Atom+Function  
  ----- ------------  ---------------      ----- ------------  ---------------
    60      2.416364  4 H  s                  9      1.678695  1 N  py         
    19     -1.406030  1 N  d -2              46     -1.323257  3 H  s          
    66      1.219747  4 H  py                32     -1.132675  2 H  s          
    23      0.959217  1 N  d  2              52      0.962538  3 H  py         
    20      0.893607  1 N  d -1               8      0.814780  1 N  px         
 
 Vector   51  Occ=0.000000D+00  E= 4.064414D+00
              MO Center=  1.5D-01,  1.4D-01,  1.2D-01, r^2= 1.4D+00
   Bfn.  Coefficient  Atom+Function         Bfn.  Coefficient  Atom+Function  
  ----- ------------  ---------------      ----- ------------  ---------------
    32      0.963359  2 H  s                 46     -0.919847  3 H  s          
    22      0.852974  1 N  d  1               8     -0.821155  1 N  px         
    52      0.766386  3 H  py                37     -0.707152  2 H  px         
    56      0.684829  3 H  d  0              39      0.653894  2 H  pz         
    21      0.600059  1 N  d  0              43      0.595425  2 H  d  1       
 
 Vector   52  Occ=0.000000D+00  E= 4.067130D+00
              MO Center= -4.3D-02, -1.6D-01,  1.7D-01, r^2= 1.4D+00
   Bfn.  Coefficient  Atom+Function         Bfn.  Coefficient  Atom+Function  
  ----- ------------  ---------------      ----- ------------  ---------------
    60      1.087357  4 H  s                  9      0.869741  1 N  py         
    66      0.834134  4 H  py                19      0.765933  1 N  d -2       
    20      0.731851  1 N  d -1              70     -0.671794  4 H  d  0       
    65      0.619030  4 H  px                46     -0.571184  3 H  s          
    22     -0.526405  1 N  d  1              32     -0.493730  2 H  s          
 
 Vector   53  Occ=0.000000D+00  E= 4.198623D+00
              MO Center= -6.0D-02, -1.5D-01,  1.1D-01, r^2= 1.4D+00
   Bfn.  Coefficient  Atom+Function         Bfn.  Coefficient  Atom+Function  
  ----- ------------  ---------------      ----- ------------  ---------------
    60      3.477941  4 H  s                  9      2.530638  1 N  py         
    46     -1.886371  3 H  s                 66      1.652753  4 H  py         
    32     -1.617616  2 H  s                 12      1.415290  1 N  py         
     8      1.226397  1 N  px                67     -1.063734  4 H  pz         
    20      1.044392  1 N  d -1              37      0.939966  2 H  px         
 
 Vector   54  Occ=0.000000D+00  E= 4.201784D+00
              MO Center=  1.3D-01,  1.4D-01,  6.9D-02, r^2= 1.4D+00
   Bfn.  Coefficient  Atom+Function         Bfn.  Coefficient  Atom+Function  
  ----- ------------  ---------------      ----- ------------  ---------------
    32      3.096314  2 H  s                 46     -2.939019  3 H  s          
     8     -2.369488  1 N  px                37     -1.792853  2 H  px         
    11     -1.325522  1 N  px                52      1.310245  3 H  py         
     9      1.235147  1 N  py                53      1.070103  3 H  pz         
    23     -1.058631  1 N  d  2              10      0.938779  1 N  pz         
 
 Vector   55  Occ=0.000000D+00  E= 4.283487D+00
              MO Center=  8.9D-02, -3.4D-02,  2.7D-01, r^2= 1.7D+00
   Bfn.  Coefficient  Atom+Function         Bfn.  Coefficient  Atom+Function  
  ----- ------------  ---------------      ----- ------------  ---------------
    40     -0.638847  2 H  d -2              38      0.610687  2 H  py         
    58     -0.554021  3 H  d  2              72      0.540678  4 H  d  2       
    65      0.501872  4 H  px                51     -0.487528  3 H  px         
    35     -0.389141  2 H  py                52     -0.335894  3 H  py         
    68      0.335259  4 H  d -2              62     -0.333320  4 H  px         
 
 Vector   56  Occ=0.000000D+00  E= 4.321960D+00
              MO Center=  1.5D-02, -7.7D-03,  5.0D-02, r^2= 9.1D-01
   Bfn.  Coefficient  Atom+Function         Bfn.  Coefficient  Atom+Function  
  ----- ------------  ---------------      ----- ------------  ---------------
     4      1.340981  1 N  s                 21     -0.869764  1 N  d  0       
     3      0.862455  1 N  s                  2      0.822211  1 N  s          
    60     -0.746916  4 H  s                 46     -0.677113  3 H  s          
    32     -0.669273  2 H  s                 22      0.577866  1 N  d  1       
    16      0.492894  1 N  d  0              30     -0.487236  1 N  f  3       
 
 Vector   57  Occ=0.000000D+00  E= 4.662832D+00
              MO Center=  6.6D-02, -1.2D-02,  1.8D-01, r^2= 1.2D+00
   Bfn.  Coefficient  Atom+Function         Bfn.  Coefficient  Atom+Function  
  ----- ------------  ---------------      ----- ------------  ---------------
    10      1.056792  1 N  pz                21      0.692564  1 N  d  0       
     4      0.657790  1 N  s                 54      0.537015  3 H  d -2       
    68     -0.490848  4 H  d -2              43     -0.487858  2 H  d  1       
    22     -0.453263  1 N  d  1              39     -0.454619  2 H  pz         
    30     -0.433601  1 N  f  3              13      0.379970  1 N  pz         
 
 Vector   58  Occ=0.000000D+00  E= 4.838919D+00
              MO Center= -5.6D-02, -2.0D-02, -1.0D-01, r^2= 7.8D-01
   Bfn.  Coefficient  Atom+Function         Bfn.  Coefficient  Atom+Function  
  ----- ------------  ---------------      ----- ------------  ---------------
    20      0.868088  1 N  d -1               9      0.859180  1 N  py         
    19      0.764423  1 N  d -2              60      0.752573  4 H  s          
    14     -0.694680  1 N  d -2              12      0.617056  1 N  py         
    22     -0.564237  1 N  d  1              15     -0.557244  1 N  d -1       
    38     -0.507439  2 H  py                17      0.429451  1 N  d  1       
 
 Vector   59  Occ=0.000000D+00  E= 4.840761D+00
              MO Center= -1.8D-02,  3.8D-02, -1.1D-01, r^2= 7.8D-01
   Bfn.  Coefficient  Atom+Function         Bfn.  Coefficient  Atom+Function  
  ----- ------------  ---------------      ----- ------------  ---------------
    22      0.930991  1 N  d  1               8     -0.798957  1 N  px         
    17     -0.695830  1 N  d  1              21      0.671574  1 N  d  0       
    32      0.664057  2 H  s                 46     -0.634637  3 H  s          
    11     -0.573954  1 N  px                19      0.500442  1 N  d -2       
    16     -0.480447  1 N  d  0              65      0.465531  4 H  px         
 
 Vector   60  Occ=0.000000D+00  E= 4.932290D+00
              MO Center=  3.5D-02, -6.1D-03,  9.5D-02, r^2= 9.2D-01
   Bfn.  Coefficient  Atom+Function         Bfn.  Coefficient  Atom+Function  
  ----- ------------  ---------------      ----- ------------  ---------------
    10      0.956166  1 N  pz                21      0.692061  1 N  d  0       
     3      0.644026  1 N  s                 34      0.584265  2 H  px         
    16     -0.531520  1 N  d  0              63     -0.514690  4 H  py         
    49      0.492555  3 H  py                22     -0.476175  1 N  d  1       
    28      0.475562  1 N  f  1              53     -0.469854  3 H  pz         
 
 Vector   61  Occ=0.000000D+00  E= 5.336068D+00
              MO Center=  7.3D-02,  6.6D-02,  6.1D-02, r^2= 1.1D+00
   Bfn.  Coefficient  Atom+Function         Bfn.  Coefficient  Atom+Function  
  ----- ------------  ---------------      ----- ------------  ---------------
     9      1.966819  1 N  py                 8      0.950981  1 N  px         
    60      0.856571  4 H  s                 40      0.744792  2 H  d -2       
     6     -0.740468  1 N  py                20      0.685318  1 N  d -1       
    58     -0.587435  3 H  d  2              59      0.585360  4 H  s          
    12      0.500690  1 N  py                46     -0.481328  3 H  s          
 
 Vector   62  Occ=0.000000D+00  E= 5.339733D+00
              MO Center= -2.4D-02, -8.1D-02,  8.3D-02, r^2= 1.1D+00
   Bfn.  Coefficient  Atom+Function         Bfn.  Coefficient  Atom+Function  
  ----- ------------  ---------------      ----- ------------  ---------------
     8      1.833116  1 N  px                 9     -0.948741  1 N  py         
    32     -0.770457  2 H  s                 10     -0.724228  1 N  pz         
    46      0.726441  3 H  s                  5     -0.699913  1 N  px         
    72     -0.575155  4 H  d  2              31     -0.529145  2 H  s          
    45      0.502370  3 H  s                 34      0.496707  2 H  px         
 
 Vector   63  Occ=0.000000D+00  E= 5.493095D+00
              MO Center=  5.3D-03, -1.0D-03,  1.5D-02, r^2= 9.3D-01
   Bfn.  Coefficient  Atom+Function         Bfn.  Coefficient  Atom+Function  
  ----- ------------  ---------------      ----- ------------  ---------------
    10      0.815151  1 N  pz                 3     -0.659486  1 N  s          
    16      0.646897  1 N  d  0              43     -0.541023  2 H  d  1       
    69     -0.534727  4 H  d -1               2     -0.511102  1 N  s          
    56      0.459240  3 H  d  0              55      0.444712  3 H  d -1       
     7     -0.434232  1 N  pz                17     -0.434650  1 N  d  1       
 
 Vector   64  Occ=0.000000D+00  E= 5.763783D+00
              MO Center=  2.1D-02, -4.4D-02,  1.2D-01, r^2= 9.6D-01
   Bfn.  Coefficient  Atom+Function         Bfn.  Coefficient  Atom+Function  
  ----- ------------  ---------------      ----- ------------  ---------------
    19      1.111129  1 N  d -2              25      0.627765  1 N  f -2       
    26      0.612009  1 N  f -1              70     -0.581612  4 H  d  0       
    60      0.569211  4 H  s                 68      0.512727  4 H  d -2       
     9      0.503516  1 N  py                15      0.483185  1 N  d -1       
    22     -0.484010  1 N  d  1              54      0.474793  3 H  d -2       
 
 Vector   65  Occ=0.000000D+00  E= 5.770886D+00
              MO Center=  6.1D-02,  2.2D-02,  1.1D-01, r^2= 9.6D-01
   Bfn.  Coefficient  Atom+Function         Bfn.  Coefficient  Atom+Function  
  ----- ------------  ---------------      ----- ------------  ---------------
    23      0.783108  1 N  d  2              22      0.719247  1 N  d  1       
    27      0.703949  1 N  f  0              19      0.653887  1 N  d -2       
    43      0.597870  2 H  d  1              28      0.565912  1 N  f  1       
    56      0.552603  3 H  d  0              32      0.541306  2 H  s          
    52      0.513295  3 H  py                46     -0.508078  3 H  s          
 
 Vector   66  Occ=0.000000D+00  E= 5.857060D+00
              MO Center=  1.6D-02, -2.9D-03,  4.3D-02, r^2= 1.1D+00
   Bfn.  Coefficient  Atom+Function         Bfn.  Coefficient  Atom+Function  
  ----- ------------  ---------------      ----- ------------  ---------------
     4      2.597493  1 N  s                 32     -1.659738  2 H  s          
    46     -1.658222  3 H  s                 60     -1.645429  4 H  s          
     2      1.472300  1 N  s                 37      1.022464  2 H  px         
    30      0.987890  1 N  f  3              10      0.955123  1 N  pz         
    66     -0.911621  4 H  py                52      0.869496  3 H  py         
 
 Vector   67  Occ=0.000000D+00  E= 5.930629D+00
              MO Center= -1.4D-02,  3.2D-02, -4.8D-02, r^2= 9.4D-01
   Bfn.  Coefficient  Atom+Function         Bfn.  Coefficient  Atom+Function  
  ----- ------------  ---------------      ----- ------------  ---------------
    24      1.071084  1 N  f -3              25     -0.599441  1 N  f -2       
    26      0.546808  1 N  f -1              23     -0.443476  1 N  d  2       
    71     -0.442765  4 H  d  1              40      0.435793  2 H  d -2       
    62     -0.425151  4 H  px                45     -0.415223  3 H  s          
    57      0.412319  3 H  d  1              20      0.400429  1 N  d -1       
 
 Vector   68  Occ=0.000000D+00  E= 5.935265D+00
              MO Center= -4.5D-02, -9.5D-02, -2.4D-02, r^2= 9.7D-01
   Bfn.  Coefficient  Atom+Function         Bfn.  Coefficient  Atom+Function  
  ----- ------------  ---------------      ----- ------------  ---------------
    20      0.871312  1 N  d -1              26      0.836562  1 N  f -1       
    59      0.739457  4 H  s                 69      0.725410  4 H  d -1       
    29      0.689346  1 N  f  2              23      0.625103  1 N  d  2       
    66     -0.524563  4 H  py                60     -0.506554  4 H  s          
     9     -0.467276  1 N  py                67      0.457943  4 H  pz         
 
 Vector   69  Occ=0.000000D+00  E= 5.939877D+00
              MO Center=  1.7D-02,  7.4D-02, -4.6D-02, r^2= 9.5D-01
   Bfn.  Coefficient  Atom+Function         Bfn.  Coefficient  Atom+Function  
  ----- ------------  ---------------      ----- ------------  ---------------
    24      0.916063  1 N  f -3              29      0.776052  1 N  f  2       
    55     -0.611312  3 H  d -1              23      0.608216  1 N  d  2       
    45      0.506000  3 H  s                 48      0.500851  3 H  px         
    31     -0.477771  2 H  s                 20     -0.474100  1 N  d -1       
    43     -0.472759  2 H  d  1              40      0.447479  2 H  d -2       
 
 Vector   70  Occ=0.000000D+00  E= 6.794782D+00
              MO Center=  1.2D-01,  1.5D-01,  4.3D-02, r^2= 8.8D-01
   Bfn.  Coefficient  Atom+Function         Bfn.  Coefficient  Atom+Function  
  ----- ------------  ---------------      ----- ------------  ---------------
    32     -3.099742  2 H  s                 46      2.946749  3 H  s          
     8      2.904934  1 N  px                 9     -1.514969  1 N  py         
    37      1.492159  2 H  px                23      1.335626  1 N  d  2       
    34      1.164301  2 H  px                10     -1.151606  1 N  pz         
    52     -1.015466  3 H  py                18      0.939190  1 N  d  2       
 
 Vector   71  Occ=0.000000D+00  E= 6.799873D+00
              MO Center= -7.8D-02, -1.6D-01,  9.1D-02, r^2= 8.8D-01
   Bfn.  Coefficient  Atom+Function         Bfn.  Coefficient  Atom+Function  
  ----- ------------  ---------------      ----- ------------  ---------------
    60      3.502350  4 H  s                  9      3.108060  1 N  py         
    46     -1.876704  3 H  s                 32     -1.608521  2 H  s          
     8      1.505544  1 N  px                66      1.415562  4 H  py         
    63      1.113280  4 H  py                19     -0.976926  1 N  d -2       
    20      0.956849  1 N  d -1              15      0.835007  1 N  d -1       
 
 Vector   72  Occ=0.000000D+00  E= 1.324371D+01
              MO Center=  4.5D-02, -9.7D-03,  1.3D-01, r^2= 1.1D+00
   Bfn.  Coefficient  Atom+Function         Bfn.  Coefficient  Atom+Function  
  ----- ------------  ---------------      ----- ------------  ---------------
     2      9.211393  1 N  s                  4      7.542178  1 N  s          
     1      5.408397  1 N  s                 32     -4.982665  2 H  s          
    46     -4.980746  3 H  s                 60     -4.963814  4 H  s          
    10      2.951286  1 N  pz                 3     -2.763831  1 N  s          
    37      2.355089  2 H  px                66     -1.991646  4 H  py         
 

 center of mass
 --------------
 x =  -0.02942170 y =   0.00704630 z =  -0.08371869

 moments of inertia (a.u.)
 ------------------
           6.437862314678          -0.064278627260           1.088145289676
          -0.064278627260           6.096087814941          -0.236159542090
           1.088145289676          -0.236159542090           9.091559269473
 
     Multipole analysis of the density
     ---------------------------------
 
     L   x y z        total         alpha         beta         nuclear
     -   - - -        -----         -----         ----         -------
     0   0 0 0     -0.000000     -5.000000     -5.000000     10.000000
 
     1   1 0 0      0.206824      0.103412      0.103412      0.000000
     1   0 1 0     -0.047741     -0.023870     -0.023870     -0.000000
     1   0 0 1      0.585388      0.292694      0.292694      0.000000
 
     2   2 0 0     -4.867006     -4.593359     -4.593359      4.319713
     2   1 1 0      0.041393     -0.013733     -0.013733      0.068860
     2   1 0 1     -0.647818      0.246119      0.246119     -1.140055
     2   0 2 0     -4.661195     -4.670012     -4.670012      4.678829
     2   0 1 1      0.143133     -0.052824     -0.052824      0.248781
     2   0 0 2     -6.453294     -3.994689     -3.994689      1.536083
 

 Parallel integral file used      85 records with       0 large values

                                NWChem TDDFT Module
                                -------------------
 
 
                                       None
 
 
            General Information
            -------------------
           No. of orbitals :     144
            Alpha orbitals :      72
             Beta orbitals :      72
        Alpha frozen cores :       0
         Beta frozen cores :       0
     Alpha frozen virtuals :       0
      Beta frozen virtuals :       0
         Spin multiplicity :       1
    Number of AO functions :      72
        Use of symmetry is : off
      Symmetry adaption is : off
         Schwarz screening :  0.10D-07
 
              XC Information
              --------------
                  B3LYP Method XC Potential
              Hartree-Fock (Exact) Exchange   0.20          
                 Slater Exchange Functional   0.80 local    
             Becke 1988 Exchange Functional   0.72 non-local
       Lee-Yang-Parr Correlation Functional   0.81          
           VWN I RPA Correlation Functional   0.19 local    
 
             TDDFT Information
             -----------------
          Calculation type : TDDFT             
         Wavefunction type : Restricted singlets
          No. of electrons :      10
           Alpha electrons :       5
            Beta electrons :       5
              No. of roots :       4
          Max subspacesize :    4800
            Max iterations :     100
               Target root :       1
           Target symmetry : none
      Symmetry restriction : off
                 Algorithm : Optimal
        Davidson threshold :  0.10D-03
 
            Memory Information
            ------------------
          Available GA space size is         655354816 doubles
          Available MA space size is         131068756 doubles
          Length of a trial vector is          335
          Algorithm : Incore multiple tensor contraction
          Estimated peak GA usage is           6621304 doubles
          Estimated peak MA usage is             11600 doubles
 
    4 smallest eigenvalue differences (eV) 
--------------------------------------------------------
  No. Spin  Occ  Vir  Irrep   E(Occ)    E(Vir)   E(Diff)
--------------------------------------------------------
    1    1    5    6 a        -0.266     0.030     8.042
    2    1    5    7 a        -0.266     0.110    10.231
    3    1    5    8 a        -0.266     0.110    10.235
    4    1    4    6 a        -0.458     0.030    13.281
--------------------------------------------------------

  Entering Davidson iterations
  Restricted singlet excited states

  Iter   NTrls   NConv    DeltaV     DeltaE      Time   
  ----  ------  ------  ---------  ---------  --------- 
    1      4       0     0.12E+00   0.10+100        0.7
    2     12       0     0.51E-01   0.34E-02        1.0
    3     20       0     0.10E-01   0.35E-03        1.0
    4     28       0     0.25E-02   0.20E-04        1.0
    5     36       1     0.80E-03   0.17E-05        1.0
    6     42       2     0.42E-03   0.13E-06        0.8
    7     46       4     0.82E-04   0.25E-07        0.7
  ----  ------  ------  ---------  ---------  --------- 
  Convergence criterion met
 
  Ground state a         -56.584719962213 a.u.
 
  ----------------------------------------------------------------------------
  Root   1 singlet a              0.246729155 a.u.                6.7138 eV 
  ----------------------------------------------------------------------------
     Transition Moments    X  0.18720   Y -0.04108   Z  0.52614
     Transition Moments   XX  0.20816  XY -0.00093  XZ -0.01378
     Transition Moments   YY  0.21012  YZ  0.00291  ZZ  0.17578
     Dipole Oscillator Strength                    0.0515748362
     Electric Quadrupole                           0.0000000000
     Magnetic Dipole                               0.0000000000
     Total Oscillator Strength                     0.0515748362
 
     Occ.    5  a   ---  Virt.    6  a    0.99921 X
  ----------------------------------------------------------------------------
  Root   2 singlet a              0.323628374 a.u.                8.8064 eV 
  ----------------------------------------------------------------------------
     Transition Moments    X -0.25587   Y  0.13341   Z  0.10133
     Transition Moments   XX -0.45307  XY  0.05743  XZ -0.37010
     Transition Moments   YY  0.08758  YZ  0.26578  ZZ  0.36489
     Dipole Oscillator Strength                    0.0201798643
     Electric Quadrupole                           0.0000000693
     Magnetic Dipole                               0.0000001146
     Total Oscillator Strength                     0.0201800482
 
     Occ.    5  a   ---  Virt.    7  a    0.99841 X
  ----------------------------------------------------------------------------
  Root   3 singlet a              0.323699561 a.u.                8.8083 eV 
  ----------------------------------------------------------------------------
     Transition Moments    X  0.13245   Y  0.27298   Z -0.02493
     Transition Moments   XX  0.23562  XY  0.03838  XZ  0.19451
     Transition Moments   YY -0.15071  YZ  0.54340  ZZ -0.08042
     Dipole Oscillator Strength                    0.0200005262
     Electric Quadrupole                           0.0000000681
     Magnetic Dipole                               0.0000001171
     Total Oscillator Strength                     0.0200007114
 
     Occ.    5  a   ---  Virt.    8  a    0.99840 X
  ----------------------------------------------------------------------------
  Root   4 singlet a              0.441795052 a.u.               12.0219 eV 
  ----------------------------------------------------------------------------
     Transition Moments    X  0.33117   Y  0.68585   Z -0.06430
     Transition Moments   XX  0.34236  XY -0.32115  XZ  0.05147
     Transition Moments   YY -0.32373  YZ  0.49966  ZZ -0.01764
     Dipole Oscillator Strength                    0.1720617784
     Electric Quadrupole                           0.0000002143
     Magnetic Dipole                               0.0000000236
     Total Oscillator Strength                     0.1720620163
 
     Occ.    4  a   ---  Virt.    6  a    0.99814 X
 
              Target root =      1
          Target symmetry = none
      Ground state energy =    -56.584719962213
        Excitation energy =      0.246729154917
     Excited state energy =    -56.337990807296
 
  stored tddft:energy   -56.3379908072964     

 Task  times  cpu:        6.7s     wall:        6.9s
 
 
                                NWChem Input Module
                                -------------------
 
 
 Summary of allocated global arrays
-----------------------------------
  No active global arrays



                         GA Statistics for process    0
                         ------------------------------

       create   destroy   get      put      acc     scatter   gather  read&inc
calls:  690      690     1.55e+05 2.61e+04 1.36e+05  254        0      135     
number of processes/call 1.31e+00 1.90e+00 1.30e+00 0.00e+00 0.00e+00
bytes total:             1.94e+08 1.27e+07 1.95e+08 8.64e+03 0.00e+00 1.08e+03
bytes remote:            1.47e+08 3.83e+06 1.69e+08 0.00e+00 0.00e+00 0.00e+00
Max memory consumed for GA by this process: 8238208 bytes
 
MA_summarize_allocated_blocks: starting scan ...
MA_summarize_allocated_blocks: scan completed: 0 heap blocks, 0 stack blocks
MA usage statistics:

	allocation statistics:
					      heap	     stack
					      ----	     -----
	current number of blocks	         0	         0
	maximum number of blocks	        21	        52
	current total bytes		         0	         0
	maximum total bytes		  12770192	  23334840
	maximum total K-bytes		     12771	     23335
	maximum total M-bytes		        13	        24
 
 
                                     CITATION
                                     --------
                Please cite the following reference when publishing
                           results obtained with NWChem:
 
                 M. Valiev, E.J. Bylaska, N. Govind, K. Kowalski,
              T.P. Straatsma, H.J.J. van Dam, D. Wang, J. Nieplocha,
                        E. Apra, T.L. Windus, W.A. de Jong
                 "NWChem: a comprehensive and scalable open-source
                  solution for large scale molecular simulations"
                      Comput. Phys. Commun. 181, 1477 (2010)
                           doi:10.1016/j.cpc.2010.04.018
 
                                      AUTHORS
                                      -------
          E. Apra, E. J. Bylaska, W. A. de Jong, N. Govind, K. Kowalski,
       T. P. Straatsma, M. Valiev, H. J. J. van Dam, D. Wang, T. L. Windus,
        J. Hammond, J. Autschbach, K. Bhaskaran-Nair, J. Brabec, K. Lopata,
    S. A. Fischer, S. Krishnamoorthy, M. Jacquelin, W. Ma, M. Klemm, O. Villa,
      Y. Chen, V. Anisimov, F. Aquino, S. Hirata, M. T. Hackler, V. Konjkov,
            D. Mejia-Rodriguez, T. Risthaus, M. Malagoli, A. Marenich,
   A. Otero-de-la-Roza, J. Mullin, P. Nichols, R. Peverati, J. Pittner, Y. Zhao,
        P.-D. Fan, A. Fonari, M. J. Williamson, R. J. Harrison, J. R. Rehr,
      M. Dupuis, D. Silverstein, D. M. A. Smith, J. Nieplocha, V. Tipparaju,
    M. Krishnan, B. E. Van Kuiken, A. Vazquez-Mayagoitia, L. Jensen, M. Swart,
      Q. Wu, T. Van Voorhis, A. A. Auer, M. Nooijen, L. D. Crosby, E. Brown,
      G. Cisneros, G. I. Fann, H. Fruchtl, J. Garza, K. Hirao, R. A. Kendall,
      J. A. Nichols, K. Tsemekhman, K. Wolinski, J. Anchell, D. E. Bernholdt,
      P. Borowski, T. Clark, D. Clerc, H. Dachsel, M. J. O. Deegan, K. Dyall,
    D. Elwood, E. Glendening, M. Gutowski, A. C. Hess, J. Jaffe, B. G. Johnson,
     J. Ju, R. Kobayashi, R. Kutteh, Z. Lin, R. Littlefield, X. Long, B. Meng,
      T. Nakajima, S. Niu, L. Pollack, M. Rosing, K. Glaesemann, G. Sandrone,
      M. Stave, H. Taylor, G. Thomas, J. H. van Lenthe, A. T. Wong, Z. Zhang.

 Total times  cpu:        6.7s     wall:        7.2s
