 argument  1 = /storage/work/j/jbb5516/capstone/tdspec/nh3Geom.nw
 


============================== echo of input deck ==============================
echo
start

memory stack 500 heap 1000 global 1000 mb

geometry
N         -0.28268        1.08188        0.00000
H          0.73732        1.08188        0.00000
H         -0.62268        1.87390        0.54544
H         -0.62268        0.21351        0.41319
symmetry c1
end

basis spherical
 * library "cc-pvtz"
end

dft
 iterations 500
 xc b3lyp
end
task dft optimize
================================================================================


                                         
                                         
 
 
              Northwest Computational Chemistry Package (NWChem) 6.8
              ------------------------------------------------------
 
 
                    Environmental Molecular Sciences Laboratory
                       Pacific Northwest National Laboratory
                                Richland, WA 99352
 
                              Copyright (c) 1994-2017
                       Pacific Northwest National Laboratory
                            Battelle Memorial Institute
 
             NWChem is an open-source computational chemistry package
                        distributed under the terms of the
                      Educational Community License (ECL) 2.0
             A copy of the license is included with this distribution
                              in the LICENSE.TXT file
 
                                  ACKNOWLEDGMENT
                                  --------------

            This software and its documentation were developed at the
            EMSL at Pacific Northwest National Laboratory, a multiprogram
            national laboratory, operated for the U.S. Department of Energy
            by Battelle under Contract Number DE-AC05-76RL01830. Support
            for this work was provided by the Department of Energy Office
            of Biological and Environmental Research, Office of Basic
            Energy Sciences, and the Office of Advanced Scientific Computing.


           Job information
           ---------------

    hostname        = comp-sc-0475.acib.production.int.aci.ics.psu.edu
    program         = /gpfs/group/lxj18/default/jeffprograms/nwchem-6.8.1/bin/LINUX64/nwchem
    date            = Thu Jul 30 15:28:24 2020

    compiled        = Wed_Oct_03_14:08:39_2018
    source          = /gpfs/group/lxj18/default/jeffprograms/nwchem-6.8.1
    nwchem branch   = 6.8.1
    nwchem revision = v6.8-143-gdb0d964
    ga revision     = 5.6.5
    use scalapack   = F
    input           = /storage/work/j/jbb5516/capstone/tdspec/nh3Geom.nw
    prefix          = nh3Geom.
    data base       = ./nh3Geom.db
    status          = startup
    nproc           =       40
    time left       =     -1s



           Memory information
           ------------------

    heap     =  131071998 doubles =   1000.0 Mbytes
    stack    =   65535995 doubles =    500.0 Mbytes
    global   =  131072000 doubles =   1000.0 Mbytes (distinct from heap & stack)
    total    =  327679993 doubles =   2500.0 Mbytes
    verify   = yes
    hardfail = no 


           Directory information
           ---------------------
 
  0 permanent = .
  0 scratch   = .
 
 
 
 
                                NWChem Input Module
                                -------------------
 
 

 Scaling coordinates for geometry "geometry" by  1.889725989
 (inverse scale =  0.529177249)

 Turning off AUTOSYM since
 SYMMETRY directive was detected!
 

          ------
          auto-z
          ------
  Looking for out-of-plane bends
 
 
                             Geometry "geometry" -> ""
                             -------------------------
 
 Output coordinates in angstroms (scale by  1.889725989 to convert to a.u.)
 
  No.       Tag          Charge          X              Y              Z
 ---- ---------------- ---------- -------------- -------------- --------------
    1 N                    7.0000    -0.03400000     0.00763500    -0.09586300
    2 H                    1.0000     0.98600000     0.00763500    -0.09586300
    3 H                    1.0000    -0.37400000     0.79965500     0.44957700
    4 H                    1.0000    -0.37400000    -0.86073500     0.31732700
 
      Atomic Mass 
      ----------- 
 
      N                 14.003070
      H                  1.007825
 

 Effective nuclear repulsion energy (a.u.)      11.8479380667

            Nuclear Dipole moment (a.u.) 
            ----------------------------
        X                 Y               Z
 ---------------- ---------------- ----------------
     0.0000000000     0.0000000000    -0.0000000000
 


                                Z-matrix (autoz)
                                -------- 

 Units are Angstrom for bonds and degrees for angles
 
      Type          Name      I     J     K     L     M      Value
      ----------- --------  ----- ----- ----- ----- ----- ----------
    1 Stretch                  1     2                       1.02000
    2 Stretch                  1     3                       1.02000
    3 Stretch                  1     4                       1.02000
    4 Bend                     2     1     3               109.47122
    5 Bend                     2     1     4               109.47129
    6 Bend                     3     1     4               109.47106
    7 Torsion                  2     1     3     4        -119.99999
    8 Torsion                  2     1     4     3         119.99994
    9 Torsion                  3     1     2     4         119.99984
   10 Torsion                  2     4     1     3        -119.99994
   11 Torsion                  3     2     1     4        -119.99984
   12 Torsion                  2     3     1     4         119.99999
 
 
            XYZ format geometry
            -------------------
     4
 geometry
 N                    -0.03400000     0.00763500    -0.09586300
 H                     0.98600000     0.00763500    -0.09586300
 H                    -0.37400000     0.79965500     0.44957700
 H                    -0.37400000    -0.86073500     0.31732700
 
 ==============================================================================
                                internuclear distances
 ------------------------------------------------------------------------------
       center one      |      center two      | atomic units |  angstroms
 ------------------------------------------------------------------------------
    2 H                |   1 N                |     1.92752  |     1.02000
    3 H                |   1 N                |     1.92752  |     1.02000
    4 H                |   1 N                |     1.92751  |     1.02000
 ------------------------------------------------------------------------------
                         number of included internuclear distances:          3
 ==============================================================================



 ==============================================================================
                                 internuclear angles
 ------------------------------------------------------------------------------
        center 1       |       center 2       |       center 3       |  degrees
 ------------------------------------------------------------------------------
    2 H                |   1 N                |   3 H                |   109.47
    2 H                |   1 N                |   4 H                |   109.47
    3 H                |   1 N                |   4 H                |   109.47
 ------------------------------------------------------------------------------
                            number of included internuclear angles:          3
 ==============================================================================





 Summary of "ao basis" -> "" (spherical)
 ------------------------------------------------------------------------------
       Tag                 Description            Shells   Functions and Types
 ---------------- ------------------------------  ------  ---------------------
 *                          cc-pvtz                   on all atoms 


 
 
                           NWChem Geometry Optimization
                           ----------------------------
 
 
 maximum gradient threshold         (gmax) =   0.000450
 rms gradient threshold             (grms) =   0.000300
 maximum cartesian step threshold   (xmax) =   0.001800
 rms cartesian step threshold       (xrms) =   0.001200
 fixed trust radius                (trust) =   0.300000
 maximum step size to saddle      (sadstp) =   0.100000
 energy precision                  (eprec) =   5.0D-06
 maximum number of steps          (nptopt) =   20
 initial hessian option           (inhess) =    0
 line search option               (linopt) =    1
 hessian update option            (modupd) =    1
 saddle point option              (modsad) =    0
 initial eigen-mode to follow     (moddir) =    0
 initial variable to follow       (vardir) =    0
 follow first negative mode     (firstneg) =    T
 apply conjugacy                    (opcg) =    F
 source of zmatrix                         =   autoz   


          -------------------
          Energy Minimization
          -------------------

 
 Names of Z-matrix variables 
    1              2              3              4              5         
    6              7              8              9             10         
   11             12         
 
 Variables with the same non-blank name are constrained to be equal
 
 
 Using diagonal initial Hessian 
 Scaling for Hessian diagonals: bonds = 1.00  angles = 0.25  torsions = 0.10

          --------
          Step   0
          --------
 
 
                         Geometry "geometry" -> "geometry"
                         ---------------------------------
 
 Output coordinates in angstroms (scale by  1.889725989 to convert to a.u.)
 
  No.       Tag          Charge          X              Y              Z
 ---- ---------------- ---------- -------------- -------------- --------------
    1 N                    7.0000    -0.03400000     0.00763500    -0.09586300
    2 H                    1.0000     0.98600000     0.00763500    -0.09586300
    3 H                    1.0000    -0.37400000     0.79965500     0.44957700
    4 H                    1.0000    -0.37400000    -0.86073500     0.31732700
 
      Atomic Mass 
      ----------- 
 
      N                 14.003070
      H                  1.007825
 

 Effective nuclear repulsion energy (a.u.)      11.8479380667

            Nuclear Dipole moment (a.u.) 
            ----------------------------
        X                 Y               Z
 ---------------- ---------------- ----------------
     0.0000000000     0.0000000000    -0.0000000000
 
 
                                 NWChem DFT Module
                                 -----------------
 
 
                      Basis "ao basis" -> "ao basis" (spherical)
                      -----
  N (Nitrogen)
  ------------
            Exponent  Coefficients 
       -------------- ---------------------------------------------------------
  1 S  1.14200000E+04  0.000523
  1 S  1.71200000E+03  0.004045
  1 S  3.89300000E+02  0.020775
  1 S  1.10000000E+02  0.080727
  1 S  3.55700000E+01  0.233074
  1 S  1.25400000E+01  0.433501
  1 S  4.64400000E+00  0.347472
  1 S  5.11800000E-01 -0.008508
 
  2 S  1.14200000E+04 -0.000115
  2 S  1.71200000E+03 -0.000895
  2 S  3.89300000E+02 -0.004624
  2 S  1.10000000E+02 -0.018528
  2 S  3.55700000E+01 -0.057339
  2 S  1.25400000E+01 -0.132076
  2 S  4.64400000E+00 -0.172510
  2 S  5.11800000E-01  0.599944
 
  3 S  1.29300000E+00  1.000000
 
  4 S  1.78700000E-01  1.000000
 
  5 P  2.66300000E+01  0.014670
  5 P  5.94800000E+00  0.091764
  5 P  1.74200000E+00  0.298683
 
  6 P  5.55000000E-01  1.000000
 
  7 P  1.72500000E-01  1.000000
 
  8 D  1.65400000E+00  1.000000
 
  9 D  4.69000000E-01  1.000000
 
 10 F  1.09300000E+00  1.000000
 
  H (Hydrogen)
  ------------
            Exponent  Coefficients 
       -------------- ---------------------------------------------------------
  1 S  3.38700000E+01  0.006068
  1 S  5.09500000E+00  0.045308
  1 S  1.15900000E+00  0.202822
 
  2 S  3.25800000E-01  1.000000
 
  3 S  1.02700000E-01  1.000000
 
  4 P  1.40700000E+00  1.000000
 
  5 P  3.88000000E-01  1.000000
 
  6 D  1.05700000E+00  1.000000
 


 Summary of "ao basis" -> "ao basis" (spherical)
 ------------------------------------------------------------------------------
       Tag                 Description            Shells   Functions and Types
 ---------------- ------------------------------  ------  ---------------------
 N                          cc-pvtz                 10       30   4s3p2d1f
 H                          cc-pvtz                  6       14   3s2p1d




 Summary of "ao basis" -> "ao basis" (spherical)
 ------------------------------------------------------------------------------
       Tag                 Description            Shells   Functions and Types
 ---------------- ------------------------------  ------  ---------------------
 N                          cc-pvtz                 10       30   4s3p2d1f
 H                          cc-pvtz                  6       14   3s2p1d


  Caching 1-el integrals 
 
            General Information
            -------------------
          SCF calculation type: DFT
          Wavefunction type:  closed shell.
          No. of atoms     :     4
          No. of electrons :    10
           Alpha electrons :     5
            Beta electrons :     5
          Charge           :     0
          Spin multiplicity:     1
          Use of symmetry is: off; symmetry adaption is: off
          Maximum number of iterations: 500
          AO basis - number of functions:    72
                     number of shells:    28
          Convergence on energy requested:  1.00D-06
          Convergence on density requested:  1.00D-05
          Convergence on gradient requested:  5.00D-04
 
              XC Information
              --------------
                         B3LYP Method XC Potential
                     Hartree-Fock (Exact) Exchange  0.200          
                        Slater Exchange Functional  0.800 local    
                    Becke 1988 Exchange Functional  0.720 non-local
              Lee-Yang-Parr Correlation Functional  0.810          
                  VWN I RPA Correlation Functional  0.190 local    
 
             Grid Information
             ----------------
          Grid used for XC integration:  medium    
          Radial quadrature: Mura-Knowles        
          Angular quadrature: Lebedev. 
          Tag              B.-S. Rad. Rad. Pts. Rad. Cut. Ang. Pts.
          ---              ---------- --------- --------- ---------
          N                   0.65       49           6.0       434
          H                   0.35       45           7.0       434
          Grid pruning is: on 
          Number of quadrature shells:   184
          Spatial weights used:  Erf1
 
          Convergence Information
          -----------------------
          Convergence aids based upon iterative change in 
          total energy or number of iterations. 
          Levelshifting, if invoked, occurs when the 
          HOMO/LUMO gap drops below (HL_TOL):  1.00D-02
          DIIS, if invoked, will attempt to extrapolate 
          using up to (NFOCK): 10 stored Fock matrices.

                    Damping( 0%)  Levelshifting(0.5)       DIIS
                  --------------- ------------------- ---------------
          dE  on:    start            ASAP                start   
          dE off:    2 iters        500 iters           500 iters 

 
      Screening Tolerance Information
      -------------------------------
          Density screening/tol_rho:  1.00D-10
          AO Gaussian exp screening on grid/accAOfunc:  14
          CD Gaussian exp screening on grid/accCDfunc:  20
          XC Gaussian exp screening on grid/accXCfunc:  20
          Schwarz screening/accCoul:  1.00D-08

 
      Superposition of Atomic Density Guess
      -------------------------------------
 
 Sum of atomic energies:         -55.80902699
 
      Non-variational initial energy
      ------------------------------

 Total energy =     -56.195193
 1-e energy   =     -98.043079
 2-e energy   =      29.999948
 HOMO         =      -0.367768
 LUMO         =       0.064939
 
   Time after variat. SCF:      4.8
   Time prior to 1st pass:      4.8

 Integral file          = ./nh3Geom.aoints.00
 Record size in doubles =    65536    No. of integs per rec  =    43688
 Max. records in memory =        4    Max. records in file   = 61531179
 No. of bits per label  =        8    No. of bits per value  =       64


 #quartets = 8.262D+04 #integrals = 3.240D+06 #direct =  0.0% #cached =100.0%


File balance: exchanges=     0  moved=     0  time=   0.0


 Grid_pts file          = ./nh3Geom.gridpts.00
 Record size in doubles =  12289        No. of grid_pts per rec  =   3070
 Max. records in memory =      2        Max. recs in file   = 328139427


           Memory utilization after 1st SCF pass: 
           Heap Space remaining (MW):      130.78           130782254
          Stack Space remaining (MW):       65.54            65535476

   convergence    iter        energy       DeltaE   RMS-Dens  Diis-err    time
 ---------------- ----- ----------------- --------- --------- ---------  ------
 d= 0,ls=0.0,diis     1    -56.5586293720 -6.84D+01  5.50D-03  2.78D-01     6.1
 d= 0,ls=0.0,diis     2    -56.5628279670 -4.20D-03  2.94D-03  2.08D-01     6.2
 d= 0,ls=0.0,diis     3    -56.5816809092 -1.89D-02  7.03D-04  2.48D-02     6.3
 d= 0,ls=0.0,diis     4    -56.5840264379 -2.35D-03  1.21D-04  1.74D-04     6.3
 d= 0,ls=0.0,diis     5    -56.5840448790 -1.84D-05  6.79D-06  1.06D-06     6.4
 d= 0,ls=0.0,diis     6    -56.5840449874 -1.08D-07  1.25D-06  7.61D-09     6.4


         Total DFT energy =      -56.584044987417
      One electron energy =      -99.574630380392
           Coulomb energy =       39.171866265513
    Exchange-Corr. energy =       -8.029218939283
 Nuclear repulsion energy =       11.847938066745

 Numeric. integr. density =       10.000000914738

     Total iterative time =      1.6s


 
                       DFT Final Molecular Orbital Analysis
                       ------------------------------------
 
 Vector    1  Occ=2.000000D+00  E=-1.428850D+01
              MO Center= -3.4D-02,  7.6D-03, -9.6D-02, r^2= 2.0D-02
   Bfn.  Coefficient  Atom+Function         Bfn.  Coefficient  Atom+Function  
  ----- ------------  ---------------      ----- ------------  ---------------
     1      0.975149  1 N  s                  3      0.050561  1 N  s          
 
 Vector    2  Occ=2.000000D+00  E=-8.421726D-01
              MO Center=  2.5D-02, -5.6D-03,  7.1D-02, r^2= 7.0D-01
   Bfn.  Coefficient  Atom+Function         Bfn.  Coefficient  Atom+Function  
  ----- ------------  ---------------      ----- ------------  ---------------
     2      0.453306  1 N  s                  4      0.232447  1 N  s          
     3      0.125447  1 N  s                 31      0.090672  2 H  s          
    45      0.090672  3 H  s                 59      0.090673  4 H  s          
    32      0.080983  2 H  s                 46      0.080984  3 H  s          
    60      0.080984  4 H  s                 10      0.060216  1 N  pz         
 
 Vector    3  Occ=2.000000D+00  E=-4.604721D-01
              MO Center=  4.7D-02, -1.9D-01,  2.5D-02, r^2= 9.9D-01
   Bfn.  Coefficient  Atom+Function         Bfn.  Coefficient  Atom+Function  
  ----- ------------  ---------------      ----- ------------  ---------------
    60      0.238891  4 H  s                  8     -0.208811  1 N  px         
     5     -0.192961  1 N  px                 9     -0.193617  1 N  py         
    32     -0.193202  2 H  s                  6     -0.178920  1 N  py         
    59      0.164340  4 H  s                 31     -0.132909  2 H  s          
    61      0.108390  4 H  s                 11     -0.104731  1 N  px         
 
 Vector    4  Occ=2.000000D+00  E=-4.604714D-01
              MO Center= -1.1D-02,  1.8D-01,  7.5D-02, r^2= 9.9D-01
   Bfn.  Coefficient  Atom+Function         Bfn.  Coefficient  Atom+Function  
  ----- ------------  ---------------      ----- ------------  ---------------
    46      0.249469  3 H  s                  9      0.215794  1 N  py         
     6      0.199413  1 N  py                 8     -0.177578  1 N  px         
    45      0.171616  3 H  s                  5     -0.164098  1 N  px         
    32     -0.164303  2 H  s                 31     -0.113028  2 H  s          
    47      0.113190  3 H  s                 12      0.108234  1 N  py         
 
 Vector    5  Occ=2.000000D+00  E=-2.575855D-01
              MO Center= -7.6D-02,  1.7D-02, -2.1D-01, r^2= 8.9D-01
   Bfn.  Coefficient  Atom+Function         Bfn.  Coefficient  Atom+Function  
  ----- ------------  ---------------      ----- ------------  ---------------
    13      0.387170  1 N  pz                10      0.347768  1 N  pz         
     7      0.299392  1 N  pz                 4     -0.153065  1 N  s          
     2     -0.147916  1 N  s                 11      0.137319  1 N  px         
     8      0.123344  1 N  px                 5      0.106186  1 N  px         
     3     -0.045384  1 N  s                 31      0.040334  2 H  s          
 
 Vector    6  Occ=0.000000D+00  E= 2.995082D-02
              MO Center=  1.1D-01, -2.5D-02,  3.1D-01, r^2= 4.4D+00
   Bfn.  Coefficient  Atom+Function         Bfn.  Coefficient  Atom+Function  
  ----- ------------  ---------------      ----- ------------  ---------------
     4      2.220851  1 N  s                 33     -0.808367  2 H  s          
    47     -0.808367  3 H  s                 61     -0.808362  4 H  s          
    13      0.405853  1 N  pz                32     -0.357670  2 H  s          
    46     -0.357670  3 H  s                 60     -0.357671  4 H  s          
     2      0.246095  1 N  s                 10      0.171811  1 N  pz         
 
 Vector    7  Occ=0.000000D+00  E= 1.096197D-01
              MO Center=  5.0D-01,  5.3D-01,  2.8D-01, r^2= 4.3D+00
   Bfn.  Coefficient  Atom+Function         Bfn.  Coefficient  Atom+Function  
  ----- ------------  ---------------      ----- ------------  ---------------
    33      1.753363  2 H  s                 47     -1.657845  3 H  s          
    11     -0.872040  1 N  px                12      0.449850  1 N  py         
    13      0.345119  1 N  pz                 8     -0.246457  1 N  px         
    32      0.226040  2 H  s                 46     -0.213725  3 H  s          
     5     -0.156242  1 N  px                 9      0.127137  1 N  py         
 
 Vector    8  Occ=0.000000D+00  E= 1.096202D-01
              MO Center= -2.4D-01, -5.9D-01,  4.6D-01, r^2= 4.3D+00
   Bfn.  Coefficient  Atom+Function         Bfn.  Coefficient  Atom+Function  
  ----- ------------  ---------------      ----- ------------  ---------------
    61      1.969475  4 H  s                 47     -1.067451  3 H  s          
    12      0.934612  1 N  py                33     -0.902009  2 H  s          
    11      0.448617  1 N  px                 9      0.264141  1 N  py         
    60      0.253901  4 H  s                  6      0.167453  1 N  py         
    46     -0.137611  3 H  s                  8      0.126788  1 N  px         
 
 Vector    9  Occ=0.000000D+00  E= 3.211236D-01
              MO Center=  2.0D-02, -1.3D-01, -1.4D-01, r^2= 2.5D+00
   Bfn.  Coefficient  Atom+Function         Bfn.  Coefficient  Atom+Function  
  ----- ------------  ---------------      ----- ------------  ---------------
    46      1.793978  3 H  s                 12     -1.227974  1 N  py         
    32     -0.992596  2 H  s                 60     -0.801392  4 H  s          
    11      0.783111  1 N  px                13     -0.375552  1 N  pz         
    47     -0.349856  3 H  s                  9     -0.252396  1 N  py         
    33      0.193571  2 H  s                 20     -0.173207  1 N  d -1       
 
 Vector   10  Occ=0.000000D+00  E= 3.211242D-01
              MO Center= -9.3D-02,  1.5D-01, -7.3D-02, r^2= 2.5D+00
   Bfn.  Coefficient  Atom+Function         Bfn.  Coefficient  Atom+Function  
  ----- ------------  ---------------      ----- ------------  ---------------
    60     -1.608841  4 H  s                 32      1.498441  2 H  s          
    11     -1.182208  1 N  px                12     -0.861192  1 N  py         
    13      0.350710  1 N  pz                61      0.313725  4 H  s          
    33     -0.292215  2 H  s                  8     -0.242990  1 N  px         
    23     -0.203330  1 N  d  2               9     -0.177009  1 N  py         
 
 Vector   11  Occ=0.000000D+00  E= 4.257241D-01
              MO Center=  1.3D-02, -3.0D-03,  3.8D-02, r^2= 3.1D+00
   Bfn.  Coefficient  Atom+Function         Bfn.  Coefficient  Atom+Function  
  ----- ------------  ---------------      ----- ------------  ---------------
     4      2.603124  1 N  s                 13      0.907861  1 N  pz         
    33     -0.751840  2 H  s                 47     -0.751838  3 H  s          
    61     -0.751819  4 H  s                 37      0.514913  2 H  px         
    66     -0.479490  4 H  py                52      0.465515  3 H  py         
    11      0.322015  1 N  px                51     -0.259135  3 H  px         
 
 Vector   12  Occ=0.000000D+00  E= 4.427870D-01
              MO Center=  1.4D-01, -3.1D-02,  3.9D-01, r^2= 2.1D+00
   Bfn.  Coefficient  Atom+Function         Bfn.  Coefficient  Atom+Function  
  ----- ------------  ---------------      ----- ------------  ---------------
     4      3.283801  1 N  s                 13      1.647751  1 N  pz         
    32     -1.425954  2 H  s                 46     -1.425961  3 H  s          
    60     -1.425980  4 H  s                 11      0.584395  1 N  px         
    10     -0.349476  1 N  pz                37      0.321282  2 H  px         
    66     -0.276646  4 H  py                52      0.254449  3 H  py         
 
 Vector   13  Occ=0.000000D+00  E= 5.292395D-01
              MO Center=  1.3D-01,  2.6D-01, -9.5D-02, r^2= 3.5D+00
   Bfn.  Coefficient  Atom+Function         Bfn.  Coefficient  Atom+Function  
  ----- ------------  ---------------      ----- ------------  ---------------
    11      2.547635  1 N  px                33     -1.845550  2 H  s          
    47      1.800963  3 H  s                 12     -1.408510  1 N  py         
    32     -1.281484  2 H  s                 46      1.250524  3 H  s          
    13     -1.015766  1 N  pz                37      0.908618  2 H  px         
    52     -0.831906  3 H  py                23      0.398165  1 N  d  2       
 
 Vector   14  Occ=0.000000D+00  E= 5.292403D-01
              MO Center= -1.7D-01, -2.5D-01, -2.9D-02, r^2= 3.5D+00
   Bfn.  Coefficient  Atom+Function         Bfn.  Coefficient  Atom+Function  
  ----- ------------  ---------------      ----- ------------  ---------------
    12      2.732937  1 N  py                61      2.105328  4 H  s          
    60      1.461862  4 H  s                 11      1.399804  1 N  px         
    47     -1.091274  3 H  s                 33     -1.014036  2 H  s          
    66      0.910630  4 H  py                46     -0.757746  3 H  s          
    32     -0.704118  2 H  s                 37      0.499241  2 H  px         
 
 Vector   15  Occ=0.000000D+00  E= 5.776614D-01
              MO Center=  1.5D-01, -2.4D-02,  1.8D-01, r^2= 2.1D+00
   Bfn.  Coefficient  Atom+Function         Bfn.  Coefficient  Atom+Function  
  ----- ------------  ---------------      ----- ------------  ---------------
    39      0.615257  2 H  pz                33     -0.537113  2 H  s          
    67     -0.514680  4 H  pz                53     -0.421931  3 H  pz         
    51      0.367084  3 H  px                65      0.317354  4 H  px         
    52      0.308835  3 H  py                61      0.294864  4 H  s          
    47      0.242242  3 H  s                 37      0.239865  2 H  px         
 
 Vector   16  Occ=0.000000D+00  E= 5.776623D-01
              MO Center= -6.5D-03, -9.1D-03,  2.3D-01, r^2= 2.1D+00
   Bfn.  Coefficient  Atom+Function         Bfn.  Coefficient  Atom+Function  
  ----- ------------  ---------------      ----- ------------  ---------------
    38      0.632985  2 H  py                53      0.487784  3 H  pz         
    47     -0.480323  3 H  s                 65     -0.459028  4 H  px         
    61      0.449958  4 H  s                 51      0.420322  3 H  px         
    67     -0.407086  4 H  pz                66      0.222056  4 H  py         
    19     -0.212439  1 N  d -2               9     -0.161455  1 N  py         
 
 Vector   17  Occ=0.000000D+00  E= 6.090597D-01
              MO Center= -1.3D-01,  2.9D-02, -3.6D-01, r^2= 2.9D+00
   Bfn.  Coefficient  Atom+Function         Bfn.  Coefficient  Atom+Function  
  ----- ------------  ---------------      ----- ------------  ---------------
     4      6.716487  1 N  s                 32     -1.764251  2 H  s          
    46     -1.764248  3 H  s                 60     -1.764266  4 H  s          
    37      0.838296  2 H  px                33     -0.788536  2 H  s          
    47     -0.788536  3 H  s                 61     -0.788540  4 H  s          
    10      0.656312  1 N  pz                66     -0.659577  4 H  py         
 
 Vector   18  Occ=0.000000D+00  E= 9.149672D-01
              MO Center=  7.7D-02, -1.7D-02,  2.2D-01, r^2= 2.3D+00
   Bfn.  Coefficient  Atom+Function         Bfn.  Coefficient  Atom+Function  
  ----- ------------  ---------------      ----- ------------  ---------------
    38      0.805809  2 H  py                51     -0.660028  3 H  px         
    65      0.660018  4 H  px                52     -0.421432  3 H  py         
    66     -0.384373  4 H  py                67     -0.264707  4 H  pz         
    53      0.200521  3 H  pz                39      0.064188  2 H  pz         
    35     -0.047535  2 H  py                48      0.038936  3 H  px         
 
 Vector   19  Occ=0.000000D+00  E= 9.697668D-01
              MO Center=  4.7D-02, -1.1D-02,  1.3D-01, r^2= 2.3D+00
   Bfn.  Coefficient  Atom+Function         Bfn.  Coefficient  Atom+Function  
  ----- ------------  ---------------      ----- ------------  ---------------
     4      5.470546  1 N  s                 32     -2.031715  2 H  s          
    46     -2.031721  3 H  s                 60     -2.031751  4 H  s          
    13      1.991054  1 N  pz                39     -0.799124  2 H  pz         
    11      0.706155  1 N  px                10      0.589914  1 N  pz         
    52      0.575700  3 H  py                67     -0.531977  4 H  pz         
 
 Vector   20  Occ=0.000000D+00  E= 1.015993D+00
              MO Center=  5.8D-02,  1.3D-05,  8.2D-02, r^2= 2.5D+00
   Bfn.  Coefficient  Atom+Function         Bfn.  Coefficient  Atom+Function  
  ----- ------------  ---------------      ----- ------------  ---------------
    11      1.968299  1 N  px                32     -1.202159  2 H  s          
    39      0.936140  2 H  pz                65     -0.911644  4 H  px         
    51     -0.903090  3 H  px                46      0.721738  3 H  s          
    13     -0.712903  1 N  pz                60      0.480386  4 H  s          
    66      0.367386  4 H  py                33     -0.346639  2 H  s          
 
 Vector   21  Occ=0.000000D+00  E= 1.015994D+00
              MO Center=  6.0D-03, -1.4D-02,  9.9D-02, r^2= 2.5D+00
   Bfn.  Coefficient  Atom+Function         Bfn.  Coefficient  Atom+Function  
  ----- ------------  ---------------      ----- ------------  ---------------
    12      2.087504  1 N  py                60      1.110767  4 H  s          
    38     -0.990417  2 H  py                46     -0.971417  3 H  s          
    67     -0.881120  4 H  pz                53      0.775334  3 H  pz         
    52     -0.542955  3 H  py                66     -0.338310  4 H  py         
    61      0.320288  4 H  s                 47     -0.280105  3 H  s          
 
 Vector   22  Occ=0.000000D+00  E= 1.222623D+00
              MO Center=  7.2D-02,  3.9D-01,  2.2D-01, r^2= 2.2D+00
   Bfn.  Coefficient  Atom+Function         Bfn.  Coefficient  Atom+Function  
  ----- ------------  ---------------      ----- ------------  ---------------
    52     -1.148569  3 H  py                37      1.105091  2 H  px         
    47      0.883553  3 H  s                 53     -0.875653  3 H  pz         
     9     -0.745271  1 N  py                 8      0.734285  1 N  px         
    33     -0.652388  2 H  s                 46      0.479360  3 H  s          
    51      0.409689  3 H  px                32     -0.353940  2 H  s          
 
 Vector   23  Occ=0.000000D+00  E= 1.222625D+00
              MO Center=  6.1D-02, -4.2D-01,  1.6D-01, r^2= 2.2D+00
   Bfn.  Coefficient  Atom+Function         Bfn.  Coefficient  Atom+Function  
  ----- ------------  ---------------      ----- ------------  ---------------
    66      1.276139  4 H  py                37      1.090182  2 H  px         
    61      0.886767  4 H  s                  9      0.796701  1 N  py         
     8      0.724373  1 N  px                67     -0.686115  4 H  pz         
    33     -0.643584  2 H  s                 60      0.481086  4 H  s          
    65      0.413217  4 H  px                23     -0.374537  1 N  d  2       
 
 Vector   24  Occ=0.000000D+00  E= 1.313726D+00
              MO Center=  3.8D-03, -8.6D-04,  1.1D-02, r^2= 2.1D+00
   Bfn.  Coefficient  Atom+Function         Bfn.  Coefficient  Atom+Function  
  ----- ------------  ---------------      ----- ------------  ---------------
     4      1.859195  1 N  s                 13      0.976195  1 N  pz         
    21      0.789260  1 N  d  0              52      0.752216  3 H  py         
    66     -0.715517  4 H  py                37      0.669651  2 H  px         
    39     -0.654115  2 H  pz                 2      0.599659  1 N  s          
    51     -0.532546  3 H  px                65     -0.532552  4 H  px         
 
 Vector   25  Occ=0.000000D+00  E= 1.513183D+00
              MO Center= -9.1D-03,  8.7D-02, -9.7D-02, r^2= 2.1D+00
   Bfn.  Coefficient  Atom+Function         Bfn.  Coefficient  Atom+Function  
  ----- ------------  ---------------      ----- ------------  ---------------
    60      5.088461  4 H  s                 32     -2.998813  2 H  s          
    66      2.323273  4 H  py                12      2.276737  1 N  py         
    46     -2.089679  3 H  s                  9      2.079073  1 N  py         
    37      1.612660  2 H  px                11      1.528779  1 N  px         
     8      1.396047  1 N  px                23      1.381087  1 N  d  2       
 
 Vector   26  Occ=0.000000D+00  E= 1.513184D+00
              MO Center= -5.8D-02, -7.2D-02, -9.2D-02, r^2= 2.1D+00
   Bfn.  Coefficient  Atom+Function         Bfn.  Coefficient  Atom+Function  
  ----- ------------  ---------------      ----- ------------  ---------------
    46      4.669170  3 H  s                 32     -4.144267  2 H  s          
    37      2.228641  2 H  px                11      2.112741  1 N  px         
     8      1.929293  1 N  px                52     -1.910164  3 H  py         
    23      1.675159  1 N  d  2              12     -1.557086  1 N  py         
     9     -1.421889  1 N  py                53     -1.350687  3 H  pz         
 
 Vector   27  Occ=0.000000D+00  E= 1.557822D+00
              MO Center= -5.6D-02, -4.9D-03, -1.1D-01, r^2= 1.7D+00
   Bfn.  Coefficient  Atom+Function         Bfn.  Coefficient  Atom+Function  
  ----- ------------  ---------------      ----- ------------  ---------------
    12      1.394681  1 N  py                19      1.308457  1 N  d -2       
    20      1.017045  1 N  d -1              38     -1.013618  2 H  py         
    51     -0.905776  3 H  px                60      0.821661  4 H  s          
    46     -0.558813  3 H  s                 22     -0.555706  1 N  d  1       
    65      0.538858  4 H  px                11      0.431223  1 N  px         
 
 Vector   28  Occ=0.000000D+00  E= 1.557823D+00
              MO Center= -2.2D-02,  2.2D-02, -1.1D-01, r^2= 1.7D+00
   Bfn.  Coefficient  Atom+Function         Bfn.  Coefficient  Atom+Function  
  ----- ------------  ---------------      ----- ------------  ---------------
    22     -1.325156  1 N  d  1              11      1.307622  1 N  px         
    21     -0.872087  1 N  d  0              32     -0.796989  2 H  s          
    65     -0.794540  4 H  px                52     -0.666270  3 H  py         
    46      0.626104  3 H  s                 66      0.571369  4 H  py         
    39     -0.564283  2 H  pz                19     -0.551639  1 N  d -2       
 
 Vector   29  Occ=0.000000D+00  E= 1.642099D+00
              MO Center=  8.4D-02, -1.9D-02,  2.4D-01, r^2= 1.9D+00
   Bfn.  Coefficient  Atom+Function         Bfn.  Coefficient  Atom+Function  
  ----- ------------  ---------------      ----- ------------  ---------------
     4      5.289440  1 N  s                 32     -1.902148  2 H  s          
    46     -1.902130  3 H  s                 60     -1.902234  4 H  s          
    37      1.268280  2 H  px                 2      1.081930  1 N  s          
    21     -1.019173  1 N  d  0              66     -1.001386  4 H  py         
    53      0.963986  3 H  pz                52      0.859583  3 H  py         
 
 Vector   30  Occ=0.000000D+00  E= 2.286775D+00
              MO Center=  2.0D-01, -9.9D-02,  2.7D-02, r^2= 1.5D+00
   Bfn.  Coefficient  Atom+Function         Bfn.  Coefficient  Atom+Function  
  ----- ------------  ---------------      ----- ------------  ---------------
    32      2.049389  2 H  s                 60     -1.478140  4 H  s          
     8     -1.101695  1 N  px                31     -0.997901  2 H  s          
    59      0.719703  4 H  s                 37     -0.615805  2 H  px         
    46     -0.571542  3 H  s                 33     -0.513597  2 H  s          
    66     -0.441492  4 H  py                61      0.370386  4 H  s          
 
 Vector   31  Occ=0.000000D+00  E= 2.286775D+00
              MO Center= -1.3D-01,  8.4D-02,  1.6D-01, r^2= 1.5D+00
   Bfn.  Coefficient  Atom+Function         Bfn.  Coefficient  Atom+Function  
  ----- ------------  ---------------      ----- ------------  ---------------
    46      2.036594  3 H  s                 60     -1.513216  4 H  s          
     9     -1.156943  1 N  py                45     -0.991654  3 H  s          
    59      0.736801  4 H  s                 32     -0.523448  2 H  s          
    47     -0.510369  3 H  s                 52     -0.449698  3 H  py         
    61      0.379200  4 H  s                 53     -0.338229  3 H  pz         
 
 Vector   32  Occ=0.000000D+00  E= 2.311163D+00
              MO Center=  1.1D-01, -2.5D-02,  3.1D-01, r^2= 1.4D+00
   Bfn.  Coefficient  Atom+Function         Bfn.  Coefficient  Atom+Function  
  ----- ------------  ---------------      ----- ------------  ---------------
     4      5.405025  1 N  s                 32     -2.986547  2 H  s          
    46     -2.986481  3 H  s                 60     -2.986425  4 H  s          
    13      1.338413  1 N  pz                37      0.911860  2 H  px         
     2      0.902238  1 N  s                 66     -0.807654  4 H  py         
    31      0.764094  2 H  s                 45      0.764063  3 H  s          
 
 Vector   33  Occ=0.000000D+00  E= 3.035911D+00
              MO Center= -9.1D-02,  2.0D-02, -2.6D-01, r^2= 9.1D-01
   Bfn.  Coefficient  Atom+Function         Bfn.  Coefficient  Atom+Function  
  ----- ------------  ---------------      ----- ------------  ---------------
     4      2.842030  1 N  s                 10      1.510447  1 N  pz         
    32     -1.111032  2 H  s                 46     -1.111027  3 H  s          
    60     -1.111041  4 H  s                  7     -0.941288  1 N  pz         
    37      0.610563  2 H  px                 8      0.535714  1 N  px         
    66     -0.520230  4 H  py                52      0.474779  3 H  py         
 
 Vector   34  Occ=0.000000D+00  E= 3.105369D+00
              MO Center=  2.1D-02, -4.6D-03,  5.8D-02, r^2= 1.3D+00
   Bfn.  Coefficient  Atom+Function         Bfn.  Coefficient  Atom+Function  
  ----- ------------  ---------------      ----- ------------  ---------------
     4      4.110545  1 N  s                 32     -1.907597  2 H  s          
    46     -1.907583  3 H  s                 60     -1.907596  4 H  s          
    10      0.949066  1 N  pz                13      0.882215  1 N  pz         
    37      0.636406  2 H  px                66     -0.606300  4 H  py         
    52      0.597172  3 H  py                 7     -0.567749  1 N  pz         
 
 Vector   35  Occ=0.000000D+00  E= 3.149549D+00
              MO Center=  2.5D-01,  7.0D-02,  1.1D-01, r^2= 1.2D+00
   Bfn.  Coefficient  Atom+Function         Bfn.  Coefficient  Atom+Function  
  ----- ------------  ---------------      ----- ------------  ---------------
    32      0.978225  2 H  s                  8     -0.657153  1 N  px         
    46     -0.644628  3 H  s                 42     -0.377344  2 H  d  0       
    60     -0.333619  4 H  s                 44     -0.311746  2 H  d  2       
    31     -0.290309  2 H  s                 37     -0.271307  2 H  px         
     5      0.268906  1 N  px                58     -0.259108  3 H  d  2       
 
 Vector   36  Occ=0.000000D+00  E= 3.149552D+00
              MO Center= -1.3D-01, -9.7D-02,  2.3D-01, r^2= 1.2D+00
   Bfn.  Coefficient  Atom+Function         Bfn.  Coefficient  Atom+Function  
  ----- ------------  ---------------      ----- ------------  ---------------
    60      0.936990  4 H  s                 46     -0.757348  3 H  s          
     9      0.698206  1 N  py                68     -0.357290  4 H  d -2       
    54     -0.354765  3 H  d -2              71      0.341780  4 H  d  1       
    19     -0.305186  1 N  d -2               6     -0.285703  1 N  py         
    35      0.277386  2 H  py                59     -0.278059  4 H  s          
 
 Vector   37  Occ=0.000000D+00  E= 3.181730D+00
              MO Center=  1.6D-01,  1.4D-03,  1.9D-01, r^2= 1.4D+00
   Bfn.  Coefficient  Atom+Function         Bfn.  Coefficient  Atom+Function  
  ----- ------------  ---------------      ----- ------------  ---------------
    32      0.992621  2 H  s                 46     -0.575709  3 H  s          
    11     -0.478606  1 N  px                60     -0.416956  4 H  s          
    36      0.375666  2 H  pz                72     -0.349791  4 H  d  2       
    23     -0.338165  1 N  d  2              42      0.335945  2 H  d  0       
    34     -0.328157  2 H  px                58     -0.329048  3 H  d  2       
 
 Vector   38  Occ=0.000000D+00  E= 3.181731D+00
              MO Center= -6.3D-03, -3.5D-02,  2.4D-01, r^2= 1.4D+00
   Bfn.  Coefficient  Atom+Function         Bfn.  Coefficient  Atom+Function  
  ----- ------------  ---------------      ----- ------------  ---------------
    60      0.905488  4 H  s                 46     -0.813842  3 H  s          
    12      0.507281  1 N  py                41      0.448139  2 H  d -1       
     9      0.343408  1 N  py                19     -0.332613  1 N  d -2       
    63      0.327742  4 H  py                49      0.313288  3 H  py         
    67     -0.296097  4 H  pz                62      0.267571  4 H  px         
 
 Vector   39  Occ=0.000000D+00  E= 3.199023D+00
              MO Center=  4.1D-02, -9.2D-03,  1.2D-01, r^2= 1.2D+00
   Bfn.  Coefficient  Atom+Function         Bfn.  Coefficient  Atom+Function  
  ----- ------------  ---------------      ----- ------------  ---------------
    41      0.344880  2 H  d -1              35     -0.309061  2 H  py         
    57      0.306875  3 H  d  1              71     -0.288914  4 H  d  1       
    38      0.281835  2 H  py                48      0.253146  3 H  px         
    62     -0.253155  4 H  px                24     -0.250416  1 N  f -3       
    51     -0.230845  3 H  px                65      0.230854  4 H  px         
 
 Vector   40  Occ=0.000000D+00  E= 3.357566D+00
              MO Center=  1.0D-01, -2.3D-02,  2.9D-01, r^2= 1.3D+00
   Bfn.  Coefficient  Atom+Function         Bfn.  Coefficient  Atom+Function  
  ----- ------------  ---------------      ----- ------------  ---------------
    35      0.447028  2 H  py                41      0.427648  2 H  d -1       
    48     -0.366150  3 H  px                62      0.366153  4 H  px         
    38     -0.342167  2 H  py                51      0.280261  3 H  px         
    65     -0.280266  4 H  px                58     -0.256628  3 H  d  2       
    49     -0.233798  3 H  py                71     -0.228512  4 H  d  1       
 
 Vector   41  Occ=0.000000D+00  E= 3.451483D+00
              MO Center=  9.6D-02,  2.0D-01,  1.1D-01, r^2= 1.3D+00
   Bfn.  Coefficient  Atom+Function         Bfn.  Coefficient  Atom+Function  
  ----- ------------  ---------------      ----- ------------  ---------------
    46      1.890541  3 H  s                  8      1.799709  1 N  px         
    32     -1.628015  2 H  s                 37      1.437335  2 H  px         
     9     -1.402400  1 N  py                52     -1.320485  3 H  py         
    53     -0.934149  3 H  pz                10     -0.750010  1 N  pz         
     5     -0.667914  1 N  px                11      0.597067  1 N  px         
 
 Vector   42  Occ=0.000000D+00  E= 3.451486D+00
              MO Center= -1.3D-02, -2.2D-01,  1.2D-01, r^2= 1.3D+00
   Bfn.  Coefficient  Atom+Function         Bfn.  Coefficient  Atom+Function  
  ----- ------------  ---------------      ----- ------------  ---------------
    60      2.031467  4 H  s                  9      1.941439  1 N  py         
    66      1.523455  4 H  py                 8      1.374173  1 N  px         
    32     -1.243081  2 H  s                 37      1.097484  2 H  px         
    46     -0.788384  3 H  s                 67     -0.791627  4 H  pz         
     6     -0.720506  1 N  py                12      0.644092  1 N  py         
 
 Vector   43  Occ=0.000000D+00  E= 3.501467D+00
              MO Center=  4.2D-02,  7.7D-02,  2.9D-02, r^2= 1.3D+00
   Bfn.  Coefficient  Atom+Function         Bfn.  Coefficient  Atom+Function  
  ----- ------------  ---------------      ----- ------------  ---------------
    46      0.967457  3 H  s                 32     -0.889245  2 H  s          
    11      0.881782  1 N  px                12     -0.608212  1 N  py         
    36     -0.453180  2 H  pz                53     -0.440539  3 H  pz         
     8      0.398261  1 N  px                37      0.392422  2 H  px         
    65     -0.376209  4 H  px                50      0.368009  3 H  pz         
 
 Vector   44  Occ=0.000000D+00  E= 3.501468D+00
              MO Center= -1.8D-02, -8.3D-02,  3.8D-02, r^2= 1.3D+00
   Bfn.  Coefficient  Atom+Function         Bfn.  Coefficient  Atom+Function  
  ----- ------------  ---------------      ----- ------------  ---------------
    60      1.071952  4 H  s                 12      0.949115  1 N  py         
    32     -0.603731  2 H  s                 11      0.598659  1 N  px         
    20      0.490435  1 N  d -1              67     -0.487702  4 H  pz         
    46     -0.468250  3 H  s                 64      0.461417  4 H  pz         
     9      0.428663  1 N  py                38     -0.397974  2 H  py         
 
 Vector   45  Occ=0.000000D+00  E= 3.653159D+00
              MO Center=  4.5D-02, -2.4D-02,  2.2D-01, r^2= 1.7D+00
   Bfn.  Coefficient  Atom+Function         Bfn.  Coefficient  Atom+Function  
  ----- ------------  ---------------      ----- ------------  ---------------
    65      0.475246  4 H  px                53     -0.460522  3 H  pz         
    62     -0.441697  4 H  px                43      0.431059  2 H  d  1       
    36     -0.406053  2 H  pz                67     -0.406149  4 H  pz         
    37      0.402859  2 H  px                39      0.403259  2 H  pz         
    51      0.401760  3 H  px                50      0.376202  3 H  pz         
 
 Vector   46  Occ=0.000000D+00  E= 3.653161D+00
              MO Center=  1.0D-01, -8.9D-03,  2.0D-01, r^2= 1.7D+00
   Bfn.  Coefficient  Atom+Function         Bfn.  Coefficient  Atom+Function  
  ----- ------------  ---------------      ----- ------------  ---------------
    35      0.660312  2 H  py                38     -0.656226  2 H  py         
    48      0.447634  3 H  px                19      0.395838  1 N  d -2       
    67      0.387240  4 H  pz                12      0.372976  1 N  py         
    51     -0.371694  3 H  px                62     -0.357205  4 H  px         
    66     -0.358882  4 H  py                 9     -0.343686  1 N  py         
 
 Vector   47  Occ=0.000000D+00  E= 3.706032D+00
              MO Center=  7.9D-02, -1.8D-02,  2.2D-01, r^2= 1.5D+00
   Bfn.  Coefficient  Atom+Function         Bfn.  Coefficient  Atom+Function  
  ----- ------------  ---------------      ----- ------------  ---------------
     4      1.024643  1 N  s                 13      0.709213  1 N  pz         
    36      0.632175  2 H  pz                50      0.629980  3 H  pz         
    64      0.630512  4 H  pz                32     -0.550858  2 H  s          
    46     -0.550856  3 H  s                 60     -0.550857  4 H  s          
    39     -0.541329  2 H  pz                67     -0.514472  4 H  pz         
 
 Vector   48  Occ=0.000000D+00  E= 3.788438D+00
              MO Center=  4.0D-02, -9.0D-03,  1.1D-01, r^2= 1.6D+00
   Bfn.  Coefficient  Atom+Function         Bfn.  Coefficient  Atom+Function  
  ----- ------------  ---------------      ----- ------------  ---------------
     4      2.090626  1 N  s                 13      0.735720  1 N  pz         
    52      0.724094  3 H  py                66     -0.710917  4 H  py         
    32     -0.704230  2 H  s                 37      0.705291  2 H  px         
    46     -0.704235  3 H  s                 60     -0.704220  4 H  s          
    10      0.555657  1 N  pz                 2      0.504044  1 N  s          
 
 Vector   49  Occ=0.000000D+00  E= 3.926383D+00
              MO Center=  5.6D-02, -1.1D-02,  1.7D-01, r^2= 1.6D+00
   Bfn.  Coefficient  Atom+Function         Bfn.  Coefficient  Atom+Function  
  ----- ------------  ---------------      ----- ------------  ---------------
    32      2.359197  2 H  s                 60     -1.901424  4 H  s          
     8     -1.807077  1 N  px                23     -1.732260  1 N  d  2       
    37     -1.378761  2 H  px                65     -0.900941  4 H  px         
    66     -0.808411  4 H  py                 9     -0.725747  1 N  py         
    51     -0.684555  3 H  px                10      0.583121  1 N  pz         
 
 Vector   50  Occ=0.000000D+00  E= 3.926384D+00
              MO Center=  6.3D-02, -1.6D-02,  1.7D-01, r^2= 1.6D+00
   Bfn.  Coefficient  Atom+Function         Bfn.  Coefficient  Atom+Function  
  ----- ------------  ---------------      ----- ------------  ---------------
    46      2.459866  3 H  s                  9     -1.892731  1 N  py         
    60     -1.626400  4 H  s                 52     -1.340492  3 H  py         
    20     -1.234772  1 N  d -1              19      1.215623  1 N  d -2       
    66     -1.125032  4 H  py                32     -0.833476  2 H  s          
     8      0.638416  1 N  px                38     -0.639226  2 H  py         
 
 Vector   51  Occ=0.000000D+00  E= 4.077949D+00
              MO Center=  1.2D-01,  1.0D-01,  5.8D-02, r^2= 1.4D+00
   Bfn.  Coefficient  Atom+Function         Bfn.  Coefficient  Atom+Function  
  ----- ------------  ---------------      ----- ------------  ---------------
    23      0.972453  1 N  d  2              22      0.790485  1 N  d  1       
    19      0.655345  1 N  d -2              56      0.657397  3 H  d  0       
    39      0.617673  2 H  pz                43      0.585460  2 H  d  1       
    53     -0.528706  3 H  pz                32     -0.486597  2 H  s          
    21      0.435509  1 N  d  0              46      0.427655  3 H  s          
 
 Vector   52  Occ=0.000000D+00  E= 4.077950D+00
              MO Center= -6.2D-02, -1.1D-01,  1.1D-01, r^2= 1.4D+00
   Bfn.  Coefficient  Atom+Function         Bfn.  Coefficient  Atom+Function  
  ----- ------------  ---------------      ----- ------------  ---------------
    19      1.316404  1 N  d -2              67      0.616612  4 H  pz         
    70     -0.564256  4 H  d  0              60     -0.527782  4 H  s          
    22     -0.473497  1 N  d  1              69      0.459105  4 H  d -1       
    23     -0.411879  1 N  d  2              14     -0.367890  1 N  d -2       
    57     -0.366650  3 H  d  1              35     -0.342228  2 H  py         
 
 Vector   53  Occ=0.000000D+00  E= 4.205226D+00
              MO Center=  8.7D-02, -1.9D-02,  2.5D-01, r^2= 1.7D+00
   Bfn.  Coefficient  Atom+Function         Bfn.  Coefficient  Atom+Function  
  ----- ------------  ---------------      ----- ------------  ---------------
    40     -0.629406  2 H  d -2              38      0.605652  2 H  py         
    58     -0.538417  3 H  d  2              72      0.522882  4 H  d  2       
    51     -0.496065  3 H  px                65      0.496108  4 H  px         
    35     -0.417352  2 H  py                48      0.341889  3 H  px         
    62     -0.341818  4 H  px                68      0.330425  4 H  d -2       
 
 Vector   54  Occ=0.000000D+00  E= 4.210858D+00
              MO Center=  2.7D-03,  1.5D-01,  8.8D-02, r^2= 1.4D+00
   Bfn.  Coefficient  Atom+Function         Bfn.  Coefficient  Atom+Function  
  ----- ------------  ---------------      ----- ------------  ---------------
    46      3.272503  3 H  s                 32     -2.173207  2 H  s          
     9     -2.012992  1 N  py                 8      1.677610  1 N  px         
    52     -1.521965  3 H  py                37      1.302051  2 H  px         
    12     -1.152930  1 N  py                53     -1.101669  3 H  pz         
    60     -1.099253  4 H  s                 11      0.960843  1 N  px         
 
 Vector   55  Occ=0.000000D+00  E= 4.210860D+00
              MO Center=  4.6D-02, -1.6D-01,  4.9D-02, r^2= 1.4D+00
   Bfn.  Coefficient  Atom+Function         Bfn.  Coefficient  Atom+Function  
  ----- ------------  ---------------      ----- ------------  ---------------
    60      3.143995  4 H  s                 32     -2.524158  2 H  s          
     8      1.948427  1 N  px                 9      1.828468  1 N  py         
    66      1.632781  4 H  py                37      1.512298  2 H  px         
    11      1.115949  1 N  px                12      1.047243  1 N  py         
    23      0.854539  1 N  d  2              67     -0.798784  4 H  pz         
 
 Vector   56  Occ=0.000000D+00  E= 4.228890D+00
              MO Center=  2.1D-02, -4.9D-03,  6.0D-02, r^2= 9.7D-01
   Bfn.  Coefficient  Atom+Function         Bfn.  Coefficient  Atom+Function  
  ----- ------------  ---------------      ----- ------------  ---------------
     4      1.671834  1 N  s                 21     -0.912578  1 N  d  0       
     2      0.833501  1 N  s                  3      0.830092  1 N  s          
    32     -0.822704  2 H  s                 46     -0.822888  3 H  s          
    60     -0.823475  4 H  s                 22      0.600318  1 N  d  1       
    30     -0.469699  1 N  f  3              53      0.471279  3 H  pz         
 
 Vector   57  Occ=0.000000D+00  E= 4.547793D+00
              MO Center=  6.4D-02, -1.4D-02,  1.8D-01, r^2= 1.2D+00
   Bfn.  Coefficient  Atom+Function         Bfn.  Coefficient  Atom+Function  
  ----- ------------  ---------------      ----- ------------  ---------------
    10      1.071430  1 N  pz                 4      0.809267  1 N  s          
    54      0.561015  3 H  d -2              21      0.541638  1 N  d  0       
    68     -0.520809  4 H  d -2              43     -0.493254  2 H  d  1       
    39     -0.435650  2 H  pz                32     -0.413064  2 H  s          
    46     -0.413078  3 H  s                 60     -0.413076  4 H  s          
 
 Vector   58  Occ=0.000000D+00  E= 4.806647D+00
              MO Center= -3.8D-02,  1.8D-02, -9.1D-02, r^2= 8.0D-01
   Bfn.  Coefficient  Atom+Function         Bfn.  Coefficient  Atom+Function  
  ----- ------------  ---------------      ----- ------------  ---------------
    46     -1.045814  3 H  s                  9      0.984611  1 N  py         
    20      0.861871  1 N  d -1              19      0.814659  1 N  d -2       
    12      0.719377  1 N  py                14     -0.659404  1 N  d -2       
     8     -0.601617  1 N  px                22      0.579697  1 N  d  1       
    32      0.561204  2 H  s                 38     -0.544591  2 H  py         
 
 Vector   59  Occ=0.000000D+00  E= 4.806649D+00
              MO Center= -2.8D-02, -3.3D-03, -9.6D-02, r^2= 8.0D-01
   Bfn.  Coefficient  Atom+Function         Bfn.  Coefficient  Atom+Function  
  ----- ------------  ---------------      ----- ------------  ---------------
    22      1.047105  1 N  d  1               8     -0.947205  1 N  px         
    60     -0.927792  4 H  s                 32      0.883587  2 H  s          
    17     -0.730345  1 N  d  1              11     -0.692051  1 N  px         
    20     -0.677379  1 N  d -1               9     -0.662661  1 N  py         
    21      0.569550  1 N  d  0              51      0.527314  3 H  px         
 
 Vector   60  Occ=0.000000D+00  E= 5.011940D+00
              MO Center=  3.0D-02, -6.7D-03,  8.4D-02, r^2= 9.1D-01
   Bfn.  Coefficient  Atom+Function         Bfn.  Coefficient  Atom+Function  
  ----- ------------  ---------------      ----- ------------  ---------------
    10      0.907449  1 N  pz                21      0.693248  1 N  d  0       
     4     -0.683641  1 N  s                  3      0.652076  1 N  s          
    16     -0.573445  1 N  d  0              34      0.534765  2 H  px         
    28      0.498481  1 N  f  1              63     -0.491026  4 H  py         
    49      0.472348  3 H  py                27     -0.458435  1 N  f  0       
 
 Vector   61  Occ=0.000000D+00  E= 5.326779D+00
              MO Center=  1.3D-01,  8.5D-02,  4.9D-02, r^2= 1.1D+00
   Bfn.  Coefficient  Atom+Function         Bfn.  Coefficient  Atom+Function  
  ----- ------------  ---------------      ----- ------------  ---------------
     9      2.054822  1 N  py                60      0.946524  4 H  s          
    40      0.817246  2 H  d -2               6     -0.751152  1 N  py         
    20      0.716257  1 N  d -1               8      0.689114  1 N  px         
    46     -0.622300  3 H  s                 58     -0.567227  3 H  d  2       
    12      0.562004  1 N  py                14      0.501946  1 N  d -2       
 
 Vector   62  Occ=0.000000D+00  E= 5.326785D+00
              MO Center= -7.4D-02, -9.8D-02,  1.1D-01, r^2= 1.1D+00
   Bfn.  Coefficient  Atom+Function         Bfn.  Coefficient  Atom+Function  
  ----- ------------  ---------------      ----- ------------  ---------------
     8      1.925155  1 N  px                32     -0.905773  2 H  s          
    10     -0.736525  1 N  pz                46      0.733667  3 H  s          
     5     -0.703753  1 N  px                 9     -0.674572  1 N  py         
    72     -0.603714  4 H  d  2              22     -0.543797  1 N  d  1       
    11      0.526543  1 N  px                34      0.518838  2 H  px         
 
 Vector   63  Occ=0.000000D+00  E= 5.509551D+00
              MO Center= -4.3D-03,  9.8D-04, -1.2D-02, r^2= 9.3D-01
   Bfn.  Coefficient  Atom+Function         Bfn.  Coefficient  Atom+Function  
  ----- ------------  ---------------      ----- ------------  ---------------
    10      0.819190  1 N  pz                16      0.645953  1 N  d  0       
     3     -0.634488  1 N  s                 69     -0.526604  4 H  d -1       
    43     -0.496321  2 H  d  1              28      0.478872  1 N  f  1       
     2     -0.457133  1 N  s                 55      0.453741  3 H  d -1       
    17     -0.424894  1 N  d  1              27     -0.426563  1 N  f  0       
 
 Vector   64  Occ=0.000000D+00  E= 5.675252D+00
              MO Center=  4.6D-02,  8.6D-02,  1.1D-01, r^2= 9.8D-01
   Bfn.  Coefficient  Atom+Function         Bfn.  Coefficient  Atom+Function  
  ----- ------------  ---------------      ----- ------------  ---------------
    19      0.917837  1 N  d -2              23      0.715634  1 N  d  2       
    27      0.623201  1 N  f  0              56      0.592961  3 H  d  0       
    43      0.535245  2 H  d  1              52      0.530976  3 H  py         
    22      0.512393  1 N  d  1              25      0.512341  1 N  f -2       
    45      0.511706  3 H  s                 46     -0.445968  3 H  s          
 
 Vector   65  Occ=0.000000D+00  E= 5.675258D+00
              MO Center=  2.8D-02, -1.0D-01,  9.9D-02, r^2= 9.8D-01
   Bfn.  Coefficient  Atom+Function         Bfn.  Coefficient  Atom+Function  
  ----- ------------  ---------------      ----- ------------  ---------------
    19      0.921744  1 N  d -2              23     -0.636546  1 N  d  2       
    22     -0.602919  1 N  d  1              26      0.578620  1 N  f -1       
    70     -0.564889  4 H  d  0              43     -0.529510  2 H  d  1       
    59     -0.525658  4 H  s                 66      0.504598  4 H  py         
    28     -0.492806  1 N  f  1              68      0.489443  4 H  d -2       
 
 Vector   66  Occ=0.000000D+00  E= 5.844397D+00
              MO Center=  1.2D-02, -2.7D-03,  3.4D-02, r^2= 1.1D+00
   Bfn.  Coefficient  Atom+Function         Bfn.  Coefficient  Atom+Function  
  ----- ------------  ---------------      ----- ------------  ---------------
     4      2.475468  1 N  s                 32     -1.603682  2 H  s          
    46     -1.603673  3 H  s                 60     -1.603699  4 H  s          
     2      1.492106  1 N  s                 30      1.028647  1 N  f  3       
    37      1.019034  2 H  px                66     -0.917147  4 H  py         
    52      0.870466  3 H  py                10      0.787962  1 N  pz         
 
 Vector   67  Occ=0.000000D+00  E= 5.900566D+00
              MO Center=  2.3D-02,  9.6D-02, -2.7D-02, r^2= 9.7D-01
   Bfn.  Coefficient  Atom+Function         Bfn.  Coefficient  Atom+Function  
  ----- ------------  ---------------      ----- ------------  ---------------
    29      0.847188  1 N  f  2              23      0.791707  1 N  d  2       
    26     -0.695558  1 N  f -1              55     -0.652353  3 H  d -1       
    20     -0.592471  1 N  d -1              45      0.591706  3 H  s          
     8     -0.582702  1 N  px                31     -0.531214  2 H  s          
    37     -0.520679  2 H  px                43     -0.514520  2 H  d  1       
 
 Vector   68  Occ=0.000000D+00  E= 5.900572D+00
              MO Center= -3.9D-02, -9.2D-02, -2.0D-02, r^2= 9.7D-01
   Bfn.  Coefficient  Atom+Function         Bfn.  Coefficient  Atom+Function  
  ----- ------------  ---------------      ----- ------------  ---------------
    26      0.826417  1 N  f -1              20      0.772771  1 N  d -1       
    29      0.729218  1 N  f  2              69      0.719335  4 H  d -1       
    23      0.656788  1 N  d  2              59      0.648339  4 H  s          
     9     -0.627673  1 N  py                60     -0.542358  4 H  s          
    66     -0.498137  4 H  py                19     -0.454480  1 N  d -2       
 
 Vector   69  Occ=0.000000D+00  E= 6.044796D+00
              MO Center= -2.1D-02,  4.7D-03, -5.9D-02, r^2= 9.2D-01
   Bfn.  Coefficient  Atom+Function         Bfn.  Coefficient  Atom+Function  
  ----- ------------  ---------------      ----- ------------  ---------------
    24      1.452457  1 N  f -3              40      0.635705  2 H  d -2       
    25     -0.605475  1 N  f -2              35     -0.477570  2 H  py         
    57      0.413614  3 H  d  1              48      0.391165  3 H  px         
    62     -0.391180  4 H  px                71     -0.362988  4 H  d  1       
    72     -0.357236  4 H  d  2              68     -0.348787  4 H  d -2       
 
 Vector   70  Occ=0.000000D+00  E= 6.735347D+00
              MO Center=  1.7D-01,  1.2D-01,  2.2D-02, r^2= 8.9D-01
   Bfn.  Coefficient  Atom+Function         Bfn.  Coefficient  Atom+Function  
  ----- ------------  ---------------      ----- ------------  ---------------
    32     -3.315780  2 H  s                  8      3.187872  1 N  px         
    46      2.613838  3 H  s                 37      1.597042  2 H  px         
    23      1.381158  1 N  d  2              34      1.233227  2 H  px         
    10     -1.212898  1 N  pz                 9     -1.032585  1 N  py         
    18      1.032980  1 N  d  2              52     -0.931730  3 H  py         
 
 Vector   71  Occ=0.000000D+00  E= 6.735352D+00
              MO Center= -1.3D-01, -1.3D-01,  1.1D-01, r^2= 8.9D-01
   Bfn.  Coefficient  Atom+Function         Bfn.  Coefficient  Atom+Function  
  ----- ------------  ---------------      ----- ------------  ---------------
    60      3.423478  4 H  s                  9      3.400376  1 N  py         
    46     -2.319643  3 H  s                 66      1.408982  4 H  py         
    63      1.113400  4 H  py                32     -1.103844  2 H  s          
     8      1.061263  1 N  px                19     -0.999659  1 N  d -2       
    20      0.983156  1 N  d -1              52      0.905475  3 H  py         
 
 Vector   72  Occ=0.000000D+00  E= 1.320860D+01
              MO Center=  4.3D-02, -9.8D-03,  1.2D-01, r^2= 1.0D+00
   Bfn.  Coefficient  Atom+Function         Bfn.  Coefficient  Atom+Function  
  ----- ------------  ---------------      ----- ------------  ---------------
     2      9.118718  1 N  s                  4      7.302727  1 N  s          
     1      5.369767  1 N  s                 32     -4.853652  2 H  s          
    46     -4.853644  3 H  s                 60     -4.853712  4 H  s          
     3     -2.815541  1 N  s                 10      2.579555  1 N  pz         
    37      2.339124  2 H  px                66     -2.015294  4 H  py         
 

 center of mass
 --------------
 x =  -0.02621981 y =   0.00588789 z =  -0.07392674

 moments of inertia (a.u.)
 ------------------
           6.459688866659          -0.098956699588           1.242473620511
          -0.098956699588           6.041269587230          -0.279030685149
           1.242473620511          -0.279030685149           9.522163538444
 
     Multipole analysis of the density
     ---------------------------------
 
     L   x y z        total         alpha         beta         nuclear
     -   - - -        -----         -----         ----         -------
     0   0 0 0     -0.000000     -5.000000     -5.000000     10.000000
 
     1   1 0 0      0.186618      0.093309      0.093309      0.000000
     1   0 1 0     -0.041909     -0.020954     -0.020954      0.000000
     1   0 0 1      0.526170      0.263085      0.263085     -0.000000
 
     2   2 0 0     -4.802065     -4.650874     -4.650874      4.499684
     2   1 1 0      0.056073     -0.022949     -0.022949      0.101971
     2   1 0 1     -0.704006      0.288159      0.288159     -1.280325
     2   0 2 0     -4.564975     -4.747913     -4.747913      4.930851
     2   0 1 1      0.158099     -0.064716     -0.064716      0.287530
     2   0 0 2     -6.537314     -3.940613     -3.940613      1.343912
 

 Parallel integral file used      97 records with       0 large values

 
            General Information
            -------------------
          SCF calculation type: DFT
          Wavefunction type:  closed shell.
          No. of atoms     :     4
          No. of electrons :    10
           Alpha electrons :     5
            Beta electrons :     5
          Charge           :     0
          Spin multiplicity:     1
          Use of symmetry is: off; symmetry adaption is: off
          Maximum number of iterations: 500
          AO basis - number of functions:    72
                     number of shells:    28
          Convergence on energy requested:  1.00D-06
          Convergence on density requested:  1.00D-05
          Convergence on gradient requested:  5.00D-04
 
              XC Information
              --------------
                         B3LYP Method XC Potential
                     Hartree-Fock (Exact) Exchange  0.200          
                        Slater Exchange Functional  0.800 local    
                    Becke 1988 Exchange Functional  0.720 non-local
              Lee-Yang-Parr Correlation Functional  0.810          
                  VWN I RPA Correlation Functional  0.190 local    
 
             Grid Information
             ----------------
          Grid used for XC integration:  medium    
          Radial quadrature: Mura-Knowles        
          Angular quadrature: Lebedev. 
          Tag              B.-S. Rad. Rad. Pts. Rad. Cut. Ang. Pts.
          ---              ---------- --------- --------- ---------
          N                   0.65       49           6.0       434
          H                   0.35       45           7.0       434
          Grid pruning is: on 
          Number of quadrature shells:   184
          Spatial weights used:  Erf1
 
          Convergence Information
          -----------------------
          Convergence aids based upon iterative change in 
          total energy or number of iterations. 
          Levelshifting, if invoked, occurs when the 
          HOMO/LUMO gap drops below (HL_TOL):  1.00D-02
          DIIS, if invoked, will attempt to extrapolate 
          using up to (NFOCK): 10 stored Fock matrices.

                    Damping( 0%)  Levelshifting(0.5)       DIIS
                  --------------- ------------------- ---------------
          dE  on:    start            ASAP                start   
          dE off:    2 iters        500 iters           500 iters 

 
      Screening Tolerance Information
      -------------------------------
          Density screening/tol_rho:  1.00D-10
          AO Gaussian exp screening on grid/accAOfunc:  14
          CD Gaussian exp screening on grid/accCDfunc:  20
          XC Gaussian exp screening on grid/accXCfunc:  20
          Schwarz screening/accCoul:  1.00D-08

 
 
                            NWChem DFT Gradient Module
                            --------------------------
 
 

  charge          =   0.00
  wavefunction    = closed shell



                         DFT ENERGY GRADIENTS

    atom               coordinates                        gradient
                 x          y          z           x          y          z
   1 N      -0.064251   0.014428  -0.181155    0.000539  -0.000124   0.001528
   2 H       1.863270   0.014428  -0.181155    0.008358   0.000281  -0.003519
   3 H      -0.706758   1.511129   0.849577   -0.004449   0.007737   0.001619
   4 H      -0.706758  -1.626553   0.599661   -0.004448  -0.007894   0.000372
 
                 ----------------------------------------
                 |  Time  |  1-e(secs)   |  2-e(secs)   |
                 ----------------------------------------
                 |  CPU   |       0.00   |       0.07   |
                 ----------------------------------------
                 |  WALL  |       0.00   |       0.08   |
                 ----------------------------------------

@ Step       Energy      Delta E   Gmax     Grms     Xrms     Xmax   Walltime
@ ---- ---------------- -------- -------- -------- -------- -------- --------
@    0     -56.58404499  0.0D+00  0.00836  0.00421  0.00000  0.00000      6.9
                                                                    



                                Z-matrix (autoz)
                                -------- 

 Units are Angstrom for bonds and degrees for angles
 
      Type          Name      I     J     K     L     M      Value     Gradient
      ----------- --------  ----- ----- ----- ----- ----- ---------- ----------
    1 Stretch                  1     2                       1.02000    0.00836
    2 Stretch                  1     3                       1.02000    0.00836
    3 Stretch                  1     4                       1.02000    0.00835
    4 Bend                     2     1     3               109.47122    0.00028
    5 Bend                     2     1     4               109.47129    0.00028
    6 Bend                     3     1     4               109.47106    0.00028
    7 Torsion                  2     1     3     4        -119.99999   -0.00068
    8 Torsion                  2     1     4     3         119.99994    0.00068
    9 Torsion                  3     1     2     4         119.99984    0.00068
   10 Torsion                  2     4     1     3        -119.99994   -0.00068
   11 Torsion                  3     2     1     4        -119.99984   -0.00068
   12 Torsion                  2     3     1     4         119.99999    0.00068
 
 
                                 NWChem DFT Module
                                 -----------------
 
 


 Summary of "ao basis" -> "ao basis" (spherical)
 ------------------------------------------------------------------------------
       Tag                 Description            Shells   Functions and Types
 ---------------- ------------------------------  ------  ---------------------
 N                          cc-pvtz                 10       30   4s3p2d1f
 H                          cc-pvtz                  6       14   3s2p1d


  Caching 1-el integrals 
 
            General Information
            -------------------
          SCF calculation type: DFT
          Wavefunction type:  closed shell.
          No. of atoms     :     4
          No. of electrons :    10
           Alpha electrons :     5
            Beta electrons :     5
          Charge           :     0
          Spin multiplicity:     1
          Use of symmetry is: off; symmetry adaption is: off
          Maximum number of iterations: 500
          AO basis - number of functions:    72
                     number of shells:    28
          Convergence on energy requested:  1.00D-06
          Convergence on density requested:  1.00D-05
          Convergence on gradient requested:  5.00D-04
 
              XC Information
              --------------
                         B3LYP Method XC Potential
                     Hartree-Fock (Exact) Exchange  0.200          
                        Slater Exchange Functional  0.800 local    
                    Becke 1988 Exchange Functional  0.720 non-local
              Lee-Yang-Parr Correlation Functional  0.810          
                  VWN I RPA Correlation Functional  0.190 local    
 
             Grid Information
             ----------------
          Grid used for XC integration:  medium    
          Radial quadrature: Mura-Knowles        
          Angular quadrature: Lebedev. 
          Tag              B.-S. Rad. Rad. Pts. Rad. Cut. Ang. Pts.
          ---              ---------- --------- --------- ---------
          N                   0.65       49           6.0       434
          H                   0.35       45           7.0       434
          Grid pruning is: on 
          Number of quadrature shells:   184
          Spatial weights used:  Erf1
 
          Convergence Information
          -----------------------
          Convergence aids based upon iterative change in 
          total energy or number of iterations. 
          Levelshifting, if invoked, occurs when the 
          HOMO/LUMO gap drops below (HL_TOL):  1.00D-02
          DIIS, if invoked, will attempt to extrapolate 
          using up to (NFOCK): 10 stored Fock matrices.

                    Damping( 0%)  Levelshifting(0.5)       DIIS
                  --------------- ------------------- ---------------
          dE  on:    start            ASAP                start   
          dE off:    2 iters        500 iters           500 iters 

 
      Screening Tolerance Information
      -------------------------------
          Density screening/tol_rho:  1.00D-10
          AO Gaussian exp screening on grid/accAOfunc:  14
          CD Gaussian exp screening on grid/accCDfunc:  20
          XC Gaussian exp screening on grid/accXCfunc:  20
          Schwarz screening/accCoul:  1.00D-08


 Loading old vectors from job with title :



   Time after variat. SCF:      6.9
   Time prior to 1st pass:      6.9

 Integral file          = ./nh3Geom.aoints.00
 Record size in doubles =    65536    No. of integs per rec  =    43688
 Max. records in memory =        4    Max. records in file   = 61531166
 No. of bits per label  =        8    No. of bits per value  =       64


 #quartets = 8.262D+04 #integrals = 3.542D+06 #direct =  0.0% #cached =100.0%


File balance: exchanges=     0  moved=     0  time=   0.0


 Grid_pts file          = ./nh3Geom.gridpts.00
 Record size in doubles =  12289        No. of grid_pts per rec  =   3070
 Max. records in memory =      2        Max. recs in file   = 328139346


           Memory utilization after 1st SCF pass: 
           Heap Space remaining (MW):      130.78           130782254
          Stack Space remaining (MW):       65.54            65535476

   convergence    iter        energy       DeltaE   RMS-Dens  Diis-err    time
 ---------------- ----- ----------------- --------- --------- ---------  ------
 d= 0,ls=0.0,diis     1    -56.5842388038 -6.86D+01  2.80D-04  1.15D-03     7.4
 d= 0,ls=0.0,diis     2    -56.5843004745 -6.17D-05  1.46D-04  3.68D-04     7.4
 d= 0,ls=0.0,diis     3    -56.5843209145 -2.04D-05  5.67D-05  1.66D-04     7.4
 d= 0,ls=0.0,diis     4    -56.5843367935 -1.59D-05  9.06D-06  5.09D-07     7.5
 d= 0,ls=0.0,diis     5    -56.5843368494 -5.59D-08  7.10D-07  1.04D-08     7.5


         Total DFT energy =      -56.584336849409
      One electron energy =      -99.848841925207
           Coulomb energy =       39.310887132026
    Exchange-Corr. energy =       -8.046096823031
 Nuclear repulsion energy =       11.999714766804

 Numeric. integr. density =       10.000000273487

     Total iterative time =      0.5s


 
                       DFT Final Molecular Orbital Analysis
                       ------------------------------------
 
 Vector    1  Occ=2.000000D+00  E=-1.428505D+01
              MO Center= -3.4D-02,  7.6D-03, -9.6D-02, r^2= 2.0D-02
   Bfn.  Coefficient  Atom+Function         Bfn.  Coefficient  Atom+Function  
  ----- ------------  ---------------      ----- ------------  ---------------
     1      0.975452  1 N  s                  3      0.050692  1 N  s          
 
 Vector    2  Occ=2.000000D+00  E=-8.478938D-01
              MO Center=  2.6D-02, -5.8D-03,  7.3D-02, r^2= 7.0D-01
   Bfn.  Coefficient  Atom+Function         Bfn.  Coefficient  Atom+Function  
  ----- ------------  ---------------      ----- ------------  ---------------
     2      0.451638  1 N  s                  4      0.230689  1 N  s          
     3      0.125013  1 N  s                 31      0.092251  2 H  s          
    45      0.092250  3 H  s                 59      0.092250  4 H  s          
    32      0.080350  2 H  s                 46      0.080349  3 H  s          
[...]
  ----- ------------  ---------------      ----- ------------  ---------------
    46     -3.406734  3 H  s                  9      3.281466  1 N  py         
    60      2.387775  4 H  s                 52      1.258219  3 H  py         
    20      1.097890  1 N  d -1              19     -1.046983  1 N  d -2       
    66      1.026136  4 H  py                32      1.018958  2 H  s          
    49      1.007556  3 H  py                 8     -0.952992  1 N  px         
 
 Vector   71  Occ=0.000000D+00  E= 6.797348D+00
              MO Center=  1.6D-01, -1.0D-01, -1.2D-02, r^2= 8.8D-01
   Bfn.  Coefficient  Atom+Function         Bfn.  Coefficient  Atom+Function  
  ----- ------------  ---------------      ----- ------------  ---------------
    32     -3.345473  2 H  s                  8      3.128897  1 N  px         
    60      2.555181  4 H  s                 37      1.610444  2 H  px         
    23      1.513167  1 N  d  2              34      1.256912  2 H  px         
     9      1.095453  1 N  py                18      1.075087  1 N  d  2       
    10     -1.022483  1 N  pz                66      0.970350  4 H  py         
 
 Vector   72  Occ=0.000000D+00  E= 1.324379D+01
              MO Center=  3.8D-02, -8.6D-03,  1.1D-01, r^2= 1.1D+00
   Bfn.  Coefficient  Atom+Function         Bfn.  Coefficient  Atom+Function  
  ----- ------------  ---------------      ----- ------------  ---------------
     2      9.211481  1 N  s                  4      7.542392  1 N  s          
     1      5.408442  1 N  s                 32     -4.975840  2 H  s          
    46     -4.975820  3 H  s                 60     -4.975866  4 H  s          
    10      2.950921  1 N  pz                 3     -2.763833  1 N  s          
    37      2.351524  2 H  px                66     -1.998848  4 H  py         
 

 center of mass
 --------------
 x =  -0.04236303 y =   0.00951355 z =  -0.11943778

 moments of inertia (a.u.)
 ------------------
           6.445240938556          -0.085690364457           1.075915946842
          -0.085690364457           6.082856349420          -0.241630304185
           1.075915946842          -0.241630304185           9.097199321544
 
     Multipole analysis of the density
     ---------------------------------
 
     L   x y z        total         alpha         beta         nuclear
     -   - - -        -----         -----         ----         -------
     0   0 0 0     -0.000000     -5.000000     -5.000000     10.000000
 
     1   1 0 0      0.207589      0.167248      0.167248     -0.126906
     1   0 1 0     -0.046618     -0.037560     -0.037560      0.028502
     1   0 0 1      0.585293      0.471534      0.471534     -0.357775
 
     2   2 0 0     -4.876154     -4.594844     -4.594844      4.313533
     2   1 1 0      0.052383     -0.018563     -0.018563      0.089508
     2   1 0 1     -0.657684      0.233084      0.233084     -1.123852
     2   0 2 0     -4.654640     -4.673351     -4.673351      4.692062
     2   0 1 1      0.147700     -0.052347     -0.052347      0.252395
     2   0 0 2     -6.497231     -4.020326     -4.020326      1.543421
 

 Parallel integral file used     104 records with       0 large values

 Line search: 
     step= 1.00 grad=-7.8D-08 hess=-2.9D-07 energy=    -56.584726 mode=accept  
 new step= 1.00                   predicted energy=    -56.584726

          --------
          Step   5
          --------
 
 
                         Geometry "geometry" -> "geometry"
                         ---------------------------------
 
 Output coordinates in angstroms (scale by  1.889725989 to convert to a.u.)
 
  No.       Tag          Charge          X              Y              Z
 ---- ---------------- ---------- -------------- -------------- --------------
    1 N                    7.0000    -0.04519266     0.01014880    -0.12741740
    2 H                    1.0000     0.96734052     0.00616859    -0.07745343
    3 H                    1.0000    -0.35907393     0.77863452     0.45451674
    4 H                    1.0000    -0.35907392    -0.84076191     0.32553209
 
      Atomic Mass 
      ----------- 
 
      N                 14.003070
      H                  1.007825
 

 Effective nuclear repulsion energy (a.u.)      11.9389735485

            Nuclear Dipole moment (a.u.) 
            ----------------------------
        X                 Y               Z
 ---------------- ---------------- ----------------
    -0.1269063911     0.0285023464    -0.3577750377
 
 
                                 NWChem DFT Module
                                 -----------------
 
 


 Summary of "ao basis" -> "ao basis" (spherical)
 ------------------------------------------------------------------------------
       Tag                 Description            Shells   Functions and Types
 ---------------- ------------------------------  ------  ---------------------
 N                          cc-pvtz                 10       30   4s3p2d1f
 H                          cc-pvtz                  6       14   3s2p1d



  The DFT is already converged 

         Total DFT energy =    -56.584725831249

 
            General Information
            -------------------
          SCF calculation type: DFT
          Wavefunction type:  closed shell.
          No. of atoms     :     4
          No. of electrons :    10
           Alpha electrons :     5
            Beta electrons :     5
          Charge           :     0
          Spin multiplicity:     1
          Use of symmetry is: off; symmetry adaption is: off
          Maximum number of iterations: 500
          AO basis - number of functions:    72
                     number of shells:    28
          Convergence on energy requested:  1.00D-06
          Convergence on density requested:  1.00D-05
          Convergence on gradient requested:  5.00D-04
 
              XC Information
              --------------
                         B3LYP Method XC Potential
                     Hartree-Fock (Exact) Exchange  0.200          
                        Slater Exchange Functional  0.800 local    
                    Becke 1988 Exchange Functional  0.720 non-local
              Lee-Yang-Parr Correlation Functional  0.810          
                  VWN I RPA Correlation Functional  0.190 local    
 
             Grid Information
             ----------------
          Grid used for XC integration:  medium    
          Radial quadrature: Mura-Knowles        
          Angular quadrature: Lebedev. 
          Tag              B.-S. Rad. Rad. Pts. Rad. Cut. Ang. Pts.
          ---              ---------- --------- --------- ---------
          N                   0.65       49           6.0       434
          H                   0.35       45           7.0       434
          Grid pruning is: on 
          Number of quadrature shells:   184
          Spatial weights used:  Erf1
 
          Convergence Information
          -----------------------
          Convergence aids based upon iterative change in 
          total energy or number of iterations. 
          Levelshifting, if invoked, occurs when the 
          HOMO/LUMO gap drops below (HL_TOL):  1.00D-02
          DIIS, if invoked, will attempt to extrapolate 
          using up to (NFOCK): 10 stored Fock matrices.

                    Damping( 0%)  Levelshifting(0.5)       DIIS
                  --------------- ------------------- ---------------
          dE  on:    start            ASAP                start   
          dE off:    2 iters        500 iters           500 iters 

 
      Screening Tolerance Information
      -------------------------------
          Density screening/tol_rho:  1.00D-10
          AO Gaussian exp screening on grid/accAOfunc:  14
          CD Gaussian exp screening on grid/accCDfunc:  20
          XC Gaussian exp screening on grid/accXCfunc:  20
          Schwarz screening/accCoul:  1.00D-08

 
 
                            NWChem DFT Gradient Module
                            --------------------------
 
 

  charge          =   0.00
  wavefunction    = closed shell



                         DFT ENERGY GRADIENTS

    atom               coordinates                        gradient
                 x          y          z           x          y          z
   1 N      -0.085402   0.019178  -0.240784    0.000005  -0.000003   0.000006
   2 H       1.828009   0.011657  -0.146366   -0.000007   0.000001   0.000001
   3 H      -0.678551   1.471406   0.858912   -0.000001  -0.000002  -0.000004
   4 H      -0.678551  -1.588810   0.615166    0.000003   0.000004  -0.000003
 
                 ----------------------------------------
                 |  Time  |  1-e(secs)   |  2-e(secs)   |
                 ----------------------------------------
                 |  CPU   |       0.00   |       0.07   |
                 ----------------------------------------
                 |  WALL  |       0.00   |       0.07   |
                 ----------------------------------------

  Step       Energy      Delta E   Gmax     Grms     Xrms     Xmax   Walltime
  ---- ---------------- -------- -------- -------- -------- -------- --------
@    5     -56.58472583 -3.7D-07  0.00001  0.00000  0.00024  0.00055     14.1
                                     ok       ok       ok       ok  



                                Z-matrix (autoz)
                                -------- 

 Units are Angstrom for bonds and degrees for angles
 
      Type          Name      I     J     K     L     M      Value     Gradient
      ----------- --------  ----- ----- ----- ----- ----- ---------- ----------
    1 Stretch                  1     2                       1.01377   -0.00001
    2 Stretch                  1     3                       1.01377   -0.00000
    3 Stretch                  1     4                       1.01377   -0.00001
    4 Bend                     2     1     3               106.49448    0.00000
    5 Bend                     2     1     4               106.49446   -0.00000
    6 Bend                     3     1     4               106.49486    0.00000
    7 Torsion                  2     1     3     4        -113.35957   -0.00000
    8 Torsion                  2     1     4     3         113.35958    0.00000
    9 Torsion                  3     1     2     4         113.35984    0.00000
   10 Torsion                  2     4     1     3        -113.35958   -0.00000
   11 Torsion                  3     2     1     4        -113.35984   -0.00000
   12 Torsion                  2     3     1     4         113.35957    0.00000
 

      ----------------------
      Optimization converged
      ----------------------


  Step       Energy      Delta E   Gmax     Grms     Xrms     Xmax   Walltime
  ---- ---------------- -------- -------- -------- -------- -------- --------
@    5     -56.58472583 -3.7D-07  0.00001  0.00000  0.00024  0.00055     14.1
                                     ok       ok       ok       ok  



                                Z-matrix (autoz)
                                -------- 

 Units are Angstrom for bonds and degrees for angles
 
      Type          Name      I     J     K     L     M      Value     Gradient
      ----------- --------  ----- ----- ----- ----- ----- ---------- ----------
    1 Stretch                  1     2                       1.01377   -0.00001
    2 Stretch                  1     3                       1.01377   -0.00000
    3 Stretch                  1     4                       1.01377   -0.00001
    4 Bend                     2     1     3               106.49448    0.00000
    5 Bend                     2     1     4               106.49446   -0.00000
    6 Bend                     3     1     4               106.49486    0.00000
    7 Torsion                  2     1     3     4        -113.35957   -0.00000
    8 Torsion                  2     1     4     3         113.35958    0.00000
    9 Torsion                  3     1     2     4         113.35984    0.00000
   10 Torsion                  2     4     1     3        -113.35958   -0.00000
   11 Torsion                  3     2     1     4        -113.35984   -0.00000
   12 Torsion                  2     3     1     4         113.35957    0.00000
 
 
 
                         Geometry "geometry" -> "geometry"
                         ---------------------------------
 
 Output coordinates in angstroms (scale by  1.889725989 to convert to a.u.)
 
  No.       Tag          Charge          X              Y              Z
 ---- ---------------- ---------- -------------- -------------- --------------
    1 N                    7.0000    -0.04519266     0.01014880    -0.12741740
    2 H                    1.0000     0.96734052     0.00616859    -0.07745343
    3 H                    1.0000    -0.35907393     0.77863452     0.45451674
    4 H                    1.0000    -0.35907392    -0.84076191     0.32553209
 
      Atomic Mass 
      ----------- 
 
      N                 14.003070
      H                  1.007825
 

 Effective nuclear repulsion energy (a.u.)      11.9389735485

            Nuclear Dipole moment (a.u.) 
            ----------------------------
        X                 Y               Z
 ---------------- ---------------- ----------------
    -0.1269063911     0.0285023464    -0.3577750377
 
 
                Final and change from initial internal coordinates
                --------------------------------------------------
 


                                Z-matrix (autoz)
                                -------- 

 Units are Angstrom for bonds and degrees for angles
 
      Type          Name      I     J     K     L     M      Value       Change
      ----------- --------  ----- ----- ----- ----- ----- ---------- ----------
    1 Stretch                  1     2                       1.01377   -0.00623
    2 Stretch                  1     3                       1.01377   -0.00623
    3 Stretch                  1     4                       1.01377   -0.00622
    4 Bend                     2     1     3               106.49448   -2.97674
    5 Bend                     2     1     4               106.49446   -2.97683
    6 Bend                     3     1     4               106.49486   -2.97620
    7 Torsion                  2     1     3     4        -113.35957    6.64042
    8 Torsion                  2     1     4     3         113.35958   -6.64036
    9 Torsion                  3     1     2     4         113.35984   -6.64000
   10 Torsion                  2     4     1     3        -113.35958    6.64036
   11 Torsion                  3     2     1     4        -113.35984    6.64000
   12 Torsion                  2     3     1     4         113.35957   -6.64042
 
 ==============================================================================
                                internuclear distances
 ------------------------------------------------------------------------------
       center one      |      center two      | atomic units |  angstroms
 ------------------------------------------------------------------------------
    2 H                |   1 N                |     1.91575  |     1.01377
    3 H                |   1 N                |     1.91576  |     1.01377
    4 H                |   1 N                |     1.91575  |     1.01377
 ------------------------------------------------------------------------------
                         number of included internuclear distances:          3
 ==============================================================================



 ==============================================================================
                                 internuclear angles
 ------------------------------------------------------------------------------
        center 1       |       center 2       |       center 3       |  degrees
 ------------------------------------------------------------------------------
    2 H                |   1 N                |   3 H                |   106.49
    2 H                |   1 N                |   4 H                |   106.49
    3 H                |   1 N                |   4 H                |   106.49
 ------------------------------------------------------------------------------
                            number of included internuclear angles:          3
 ==============================================================================




 Task  times  cpu:        5.4s     wall:       10.0s
 
 
                                NWChem Input Module
                                -------------------
 
 
 Summary of allocated global arrays
-----------------------------------
  No active global arrays



                         GA Statistics for process    0
                         ------------------------------

       create   destroy   get      put      acc     scatter   gather  read&inc
calls:  957      957     1.50e+04 4564     1634        0        0      858     
number of processes/call 2.54e+00 2.80e+00 6.68e+00 0.00e+00 0.00e+00
bytes total:             5.06e+07 8.33e+06 2.25e+07 0.00e+00 0.00e+00 6.86e+03
bytes remote:            4.00e+07 4.57e+06 1.93e+07 0.00e+00 0.00e+00 0.00e+00
Max memory consumed for GA by this process: 259200 bytes
 
MA_summarize_allocated_blocks: starting scan ...
MA_summarize_allocated_blocks: scan completed: 0 heap blocks, 0 stack blocks
MA usage statistics:

	allocation statistics:
					      heap	     stack
					      ----	     -----
	current number of blocks	         0	         0
	maximum number of blocks	        23	        52
	current total bytes		         0	         0
	maximum total bytes		   2317160	  42238136
	maximum total K-bytes		      2318	     42239
	maximum total M-bytes		         3	        43
 
 
                                     CITATION
                                     --------
                Please cite the following reference when publishing
                           results obtained with NWChem:
 
                 M. Valiev, E.J. Bylaska, N. Govind, K. Kowalski,
              T.P. Straatsma, H.J.J. van Dam, D. Wang, J. Nieplocha,
                        E. Apra, T.L. Windus, W.A. de Jong
                 "NWChem: a comprehensive and scalable open-source
                  solution for large scale molecular simulations"
                      Comput. Phys. Commun. 181, 1477 (2010)
                           doi:10.1016/j.cpc.2010.04.018
 
                                      AUTHORS
                                      -------
          E. Apra, E. J. Bylaska, W. A. de Jong, N. Govind, K. Kowalski,
       T. P. Straatsma, M. Valiev, H. J. J. van Dam, D. Wang, T. L. Windus,
        J. Hammond, J. Autschbach, K. Bhaskaran-Nair, J. Brabec, K. Lopata,
    S. A. Fischer, S. Krishnamoorthy, M. Jacquelin, W. Ma, M. Klemm, O. Villa,
      Y. Chen, V. Anisimov, F. Aquino, S. Hirata, M. T. Hackler, V. Konjkov,
            D. Mejia-Rodriguez, T. Risthaus, M. Malagoli, A. Marenich,
   A. Otero-de-la-Roza, J. Mullin, P. Nichols, R. Peverati, J. Pittner, Y. Zhao,
        P.-D. Fan, A. Fonari, M. J. Williamson, R. J. Harrison, J. R. Rehr,
      M. Dupuis, D. Silverstein, D. M. A. Smith, J. Nieplocha, V. Tipparaju,
    M. Krishnan, B. E. Van Kuiken, A. Vazquez-Mayagoitia, L. Jensen, M. Swart,
      Q. Wu, T. Van Voorhis, A. A. Auer, M. Nooijen, L. D. Crosby, E. Brown,
      G. Cisneros, G. I. Fann, H. Fruchtl, J. Garza, K. Hirao, R. A. Kendall,
      J. A. Nichols, K. Tsemekhman, K. Wolinski, J. Anchell, D. E. Bernholdt,
      P. Borowski, T. Clark, D. Clerc, H. Dachsel, M. J. O. Deegan, K. Dyall,
    D. Elwood, E. Glendening, M. Gutowski, A. C. Hess, J. Jaffe, B. G. Johnson,
     J. Ju, R. Kobayashi, R. Kutteh, Z. Lin, R. Littlefield, X. Long, B. Meng,
      T. Nakajima, S. Niu, L. Pollack, M. Rosing, K. Glaesemann, G. Sandrone,
      M. Stave, H. Taylor, G. Thomas, J. H. van Lenthe, A. T. Wong, Z. Zhang.

 Total times  cpu:        5.9s     wall:       14.2s
