 argument  1 = /storage/home/j/jbb5516/normalModes/mode1174.89-p.nw
 


============================== echo of input deck ==============================
echo
start

title "None"

geometry
C    -0.08738595    1.38830730    0.00000005
C    -1.26744105    0.69112864   -0.00000002
C    -1.16753824   -0.70453758   -0.00000002
C     0.08333068   -1.31596436    0.00000004
C     1.24639108   -0.55279301   -0.00000001
C     1.17051102    0.84469334    0.00000005
H    -2.23237993    1.18011353   -0.00000010
H    -2.06893073   -1.30401374   -0.00000009
H     0.15476411   -2.39513377    0.00000000
H     2.21396999   -1.03822632   -0.00000013
H     2.06553234    1.45227095   -0.00000010
symmetry c1
end

basis spherical
 * library "aug-cc-pvtz"
end

dft
 direct
 mult 2
 iterations 500
 xc b3lyp
end

tddft
 nroots 40
 notriplet
 algorithm 1
end
task tddft energy
================================================================================


                                         
                                         
 
 
              Northwest Computational Chemistry Package (NWChem) 6.8
              ------------------------------------------------------
 
 
                    Environmental Molecular Sciences Laboratory
                       Pacific Northwest National Laboratory
                                Richland, WA 99352
 
                              Copyright (c) 1994-2017
                       Pacific Northwest National Laboratory
                            Battelle Memorial Institute
 
             NWChem is an open-source computational chemistry package
                        distributed under the terms of the
                      Educational Community License (ECL) 2.0
             A copy of the license is included with this distribution
                              in the LICENSE.TXT file
 
                                  ACKNOWLEDGMENT
                                  --------------

            This software and its documentation were developed at the
            EMSL at Pacific Northwest National Laboratory, a multiprogram
            national laboratory, operated for the U.S. Department of Energy
            by Battelle under Contract Number DE-AC05-76RL01830. Support
            for this work was provided by the Department of Energy Office
            of Biological and Environmental Research, Office of Basic
            Energy Sciences, and the Office of Advanced Scientific Computing.


           Job information
           ---------------

    hostname        = comp-sc-0333.acib.production.int.aci.ics.psu.edu
    program         = /gpfs/group/lxj18/default/jeffprograms/nwchem-6.8.1/bin/LINUX64/nwchem
    date            = Sun Sep 20 15:32:47 2020

    compiled        = Wed_Oct_03_14:08:39_2018
    source          = /gpfs/group/lxj18/default/jeffprograms/nwchem-6.8.1
    nwchem branch   = 6.8.1
    nwchem revision = v6.8-143-gdb0d964
    ga revision     = 5.6.5
    use scalapack   = F
    input           = /storage/home/j/jbb5516/normalModes/mode1174.89-p.nw
    prefix          = mode1174.89-p.
    data base       = ./mode1174.89-p.db
    status          = startup
    nproc           =       20
    time left       =     -1s



           Memory information
           ------------------

    heap     =   13107196 doubles =    100.0 Mbytes
    stack    =   13107201 doubles =    100.0 Mbytes
    global   =   26214400 doubles =    200.0 Mbytes (distinct from heap & stack)
    total    =   52428797 doubles =    400.0 Mbytes
    verify   = yes
    hardfail = no 


           Directory information
           ---------------------
 
  0 permanent = .
  0 scratch   = .
 
 
 
 
                                NWChem Input Module
                                -------------------
 
 
                                       None
                                       ----

 Scaling coordinates for geometry "geometry" by  1.889725989
 (inverse scale =  0.529177249)

 Turning off AUTOSYM since
 SYMMETRY directive was detected!
 

          ------
          auto-z
          ------
 
 
                             Geometry "geometry" -> ""
                             -------------------------
 
 Output coordinates in angstroms (scale by  1.889725989 to convert to a.u.)
 
  No.       Tag          Charge          X              Y              Z
 ---- ---------------- ---------- -------------- -------------- --------------
    1 C                    6.0000    -0.08738988     1.38830689     0.00000005
    2 C                    6.0000    -1.26744498     0.69112823    -0.00000002
    3 C                    6.0000    -1.16754217    -0.70453799    -0.00000002
    4 C                    6.0000     0.08332675    -1.31596477     0.00000004
    5 C                    6.0000     1.24638715    -0.55279342    -0.00000001
    6 C                    6.0000     1.17050709     0.84469293     0.00000005
    7 H                    1.0000    -2.23238386     1.18011312    -0.00000010
    8 H                    1.0000    -2.06893466    -1.30401415    -0.00000009
    9 H                    1.0000     0.15476018    -2.39513418    -0.00000000
   10 H                    1.0000     2.21396606    -1.03822673    -0.00000013
   11 H                    1.0000     2.06552841     1.45227054    -0.00000010
 
      Atomic Mass 
      ----------- 
 
      C                 12.000000
      H                  1.007825
 

 Effective nuclear repulsion energy (a.u.)     195.0639634273

            Nuclear Dipole moment (a.u.) 
            ----------------------------
        X                 Y               Z
 ---------------- ---------------- ----------------
    -0.0000000000    -0.0000000000     0.0000000000
 


                                Z-matrix (autoz)
                                -------- 

 Units are Angstrom for bonds and degrees for angles
 
      Type          Name      I     J     K     L     M      Value
      ----------- --------  ----- ----- ----- ----- ----- ----------
    1 Stretch                  1     2                       1.37062
    2 Stretch                  1     6                       1.37034
    3 Stretch                  2     3                       1.39924
    4 Stretch                  2     7                       1.08176
    5 Stretch                  3     4                       1.39231
    6 Stretch                  3     8                       1.08253
    7 Stretch                  4     5                       1.39109
    8 Stretch                  4     9                       1.08153
    9 Stretch                  5     6                       1.39954
   10 Stretch                  5    10                       1.08252
   11 Stretch                  6    11                       1.08176
   12 Bend                     1     2     3               116.48038
   13 Bend                     1     2     7               122.55162
   14 Bend                     1     6     5               116.48008
   15 Bend                     1     6    11               122.45760
   16 Bend                     2     1     6               126.05321
   17 Bend                     2     3     4               120.14375
   18 Bend                     2     3     8               119.53183
   19 Bend                     3     2     7               120.96800
   20 Bend                     3     4     5               120.67865
   21 Bend                     3     4     9               119.83651
   22 Bend                     4     3     8               120.32442
   23 Bend                     4     5     6               120.16392
   24 Bend                     4     5    10               120.08524
   25 Bend                     5     4     9               119.48484
   26 Bend                     5     6    11               121.06232
   27 Bend                     6     5    10               119.75084
   28 Torsion                  1     2     3     4           0.00000
   29 Torsion                  1     2     3     8        -180.00000
   30 Torsion                  1     6     5     4           0.00000
   31 Torsion                  1     6     5    10         180.00000
   32 Torsion                  2     1     6     5           0.00000
   33 Torsion                  2     1     6    11         180.00000
   34 Torsion                  2     3     4     5           0.00000
   35 Torsion                  2     3     4     9        -180.00000
   36 Torsion                  3     2     1     6           0.00000
   37 Torsion                  3     4     5     6           0.00000
   38 Torsion                  3     4     5    10        -180.00000
   39 Torsion                  4     3     2     7         180.00000
   40 Torsion                  4     5     6    11        -180.00000
   41 Torsion                  5     4     3     8         180.00000
   42 Torsion                  6     1     2     7        -180.00000
   43 Torsion                  6     5     4     9        -180.00000
   44 Torsion                  7     2     3     8           0.00000
   45 Torsion                  8     3     4     9           0.00000
   46 Torsion                  9     4     5    10           0.00000
   47 Torsion                 10     5     6    11           0.00000
 
 
            XYZ format geometry
            -------------------
    11
 geometry
 C                    -0.08738988     1.38830689     0.00000005
 C                    -1.26744498     0.69112823    -0.00000002
 C                    -1.16754217    -0.70453799    -0.00000002
 C                     0.08332675    -1.31596477     0.00000004
 C                     1.24638715    -0.55279342    -0.00000001
 C                     1.17050709     0.84469293     0.00000005
 H                    -2.23238386     1.18011312    -0.00000010
 H                    -2.06893466    -1.30401415    -0.00000009
 H                     0.15476018    -2.39513418    -0.00000000
 H                     2.21396606    -1.03822673    -0.00000013
 H                     2.06552841     1.45227054    -0.00000010
 
 ==============================================================================
                                internuclear distances
 ------------------------------------------------------------------------------
       center one      |      center two      | atomic units |  angstroms
 ------------------------------------------------------------------------------
    2 C                |   1 C                |     2.59009  |     1.37062
    3 C                |   2 C                |     2.64417  |     1.39924
    4 C                |   3 C                |     2.63108  |     1.39231
    5 C                |   4 C                |     2.62878  |     1.39109
    6 C                |   1 C                |     2.58956  |     1.37034
    6 C                |   5 C                |     2.64476  |     1.39954
    7 H                |   2 C                |     2.04424  |     1.08176
    8 H                |   3 C                |     2.04569  |     1.08253
    9 H                |   4 C                |     2.04380  |     1.08153
   10 H                |   5 C                |     2.04567  |     1.08252
   11 H                |   6 C                |     2.04424  |     1.08176
 ------------------------------------------------------------------------------
                         number of included internuclear distances:         11
 ==============================================================================



 ==============================================================================
                                 internuclear angles
 ------------------------------------------------------------------------------
        center 1       |       center 2       |       center 3       |  degrees
 ------------------------------------------------------------------------------
    2 C                |   1 C                |   6 C                |   126.05
    1 C                |   2 C                |   3 C                |   116.48
    1 C                |   2 C                |   7 H                |   122.55
    3 C                |   2 C                |   7 H                |   120.97
    2 C                |   3 C                |   4 C                |   120.14
    2 C                |   3 C                |   8 H                |   119.53
    4 C                |   3 C                |   8 H                |   120.32
    3 C                |   4 C                |   5 C                |   120.68
    3 C                |   4 C                |   9 H                |   119.84
    5 C                |   4 C                |   9 H                |   119.48
    4 C                |   5 C                |   6 C                |   120.16
    4 C                |   5 C                |  10 H                |   120.09
    6 C                |   5 C                |  10 H                |   119.75
    1 C                |   6 C                |   5 C                |   116.48
    1 C                |   6 C                |  11 H                |   122.46
    5 C                |   6 C                |  11 H                |   121.06
 ------------------------------------------------------------------------------
                            number of included internuclear angles:         16
 ==============================================================================





 Summary of "ao basis" -> "" (spherical)
 ------------------------------------------------------------------------------
       Tag                 Description            Shells   Functions and Types
 ---------------- ------------------------------  ------  ---------------------
 *                        aug-cc-pvtz                 on all atoms 


 
                                 NWChem DFT Module
                                 -----------------
 
 
                                       None
 
 
                      Basis "ao basis" -> "ao basis" (spherical)
                      -----
  C (Carbon)
  ----------
            Exponent  Coefficients 
       -------------- ---------------------------------------------------------
  1 S  8.23600000E+03  0.000531
  1 S  1.23500000E+03  0.004108
  1 S  2.80800000E+02  0.021087
  1 S  7.92700000E+01  0.081853
  1 S  2.55900000E+01  0.234817
  1 S  8.99700000E+00  0.434401
  1 S  3.31900000E+00  0.346129
  1 S  3.64300000E-01 -0.008983
 
  2 S  8.23600000E+03 -0.000113
  2 S  1.23500000E+03 -0.000878
  2 S  2.80800000E+02 -0.004540
  2 S  7.92700000E+01 -0.018133
  2 S  2.55900000E+01 -0.055760
  2 S  8.99700000E+00 -0.126895
  2 S  3.31900000E+00 -0.170352
  2 S  3.64300000E-01  0.598684
 
  3 S  9.05900000E-01  1.000000
 
  4 S  1.28500000E-01  1.000000
 
  5 S  4.40200000E-02  1.000000
 
  6 P  1.87100000E+01  0.014031
  6 P  4.13300000E+00  0.086866
  6 P  1.20000000E+00  0.290216
 
  7 P  3.82700000E-01  1.000000
 
  8 P  1.20900000E-01  1.000000
 
  9 P  3.56900000E-02  1.000000
 
 10 D  1.09700000E+00  1.000000
 
 11 D  3.18000000E-01  1.000000
 
 12 D  1.00000000E-01  1.000000
 
 13 F  7.61000000E-01  1.000000
 
 14 F  2.68000000E-01  1.000000
 
  H (Hydrogen)
  ------------
            Exponent  Coefficients 
       -------------- ---------------------------------------------------------
  1 S  3.38700000E+01  0.006068
  1 S  5.09500000E+00  0.045308
  1 S  1.15900000E+00  0.202822
 
  2 S  3.25800000E-01  1.000000
 
  3 S  1.02700000E-01  1.000000
 
  4 S  2.52600000E-02  1.000000
 
  5 P  1.40700000E+00  1.000000
 
  6 P  3.88000000E-01  1.000000
 
  7 P  1.02000000E-01  1.000000
 
  8 D  1.05700000E+00  1.000000
 
  9 D  2.47000000E-01  1.000000
 


 Summary of "ao basis" -> "ao basis" (spherical)
 ------------------------------------------------------------------------------
       Tag                 Description            Shells   Functions and Types
 ---------------- ------------------------------  ------  ---------------------
 C                        aug-cc-pvtz               14       46   5s4p3d2f
 H                        aug-cc-pvtz                9       23   4s3p2d




 Summary of "ao basis" -> "ao basis" (spherical)
 ------------------------------------------------------------------------------
       Tag                 Description            Shells   Functions and Types
 ---------------- ------------------------------  ------  ---------------------
 C                        aug-cc-pvtz               14       46   5s4p3d2f
 H                        aug-cc-pvtz                9       23   4s3p2d


  Caching 1-el integrals 
 
            General Information
            -------------------
          SCF calculation type: DFT
          Wavefunction type:  spin polarized.
          No. of atoms     :    11
          No. of electrons :    41
           Alpha electrons :    21
            Beta electrons :    20
          Charge           :     0
          Spin multiplicity:     2
          Use of symmetry is: off; symmetry adaption is: off
          Maximum number of iterations: 500
          This is a Direct SCF calculation.
          AO basis - number of functions:   391
                     number of shells:   129
          Convergence on energy requested:  1.00D-06
          Convergence on density requested:  1.00D-05
          Convergence on gradient requested:  5.00D-04
 
              XC Information
              --------------
                         B3LYP Method XC Potential
                     Hartree-Fock (Exact) Exchange  0.200          
                        Slater Exchange Functional  0.800 local    
                    Becke 1988 Exchange Functional  0.720 non-local
              Lee-Yang-Parr Correlation Functional  0.810          
                  VWN I RPA Correlation Functional  0.190 local    
 
             Grid Information
             ----------------
          Grid used for XC integration:  medium    
          Radial quadrature: Mura-Knowles        
          Angular quadrature: Lebedev. 
          Tag              B.-S. Rad. Rad. Pts. Rad. Cut. Ang. Pts.
          ---              ---------- --------- --------- ---------
          C                   0.70       49          15.0       434
          H                   0.35       45          17.0       434
          Grid pruning is: on 
          Number of quadrature shells:   519
          Spatial weights used:  Erf1
 
          Convergence Information
          -----------------------
          Convergence aids based upon iterative change in 
          total energy or number of iterations. 
          Levelshifting, if invoked, occurs when the 
          HOMO/LUMO gap drops below (HL_TOL):  1.00D-02
          DIIS, if invoked, will attempt to extrapolate 
          using up to (NFOCK): 10 stored Fock matrices.

                    Damping( 0%)  Levelshifting(0.5)       DIIS
                  --------------- ------------------- ---------------
          dE  on:    start            ASAP                start   
          dE off:    2 iters        500 iters           500 iters 

 
      Screening Tolerance Information
      -------------------------------
          Density screening/tol_rho:  1.00D-10
          AO Gaussian exp screening on grid/accAOfunc:  14
          CD Gaussian exp screening on grid/accCDfunc:  20
          XC Gaussian exp screening on grid/accXCfunc:  20
          Schwarz screening/accCoul:  1.00D-08

 
 WARNING : Found     7 linear dependencies 
 S eigenvalue threshold:     1.00000E-05
 Smallest S eigenvalue :     1.46335E-06
 Largest  S eigenvalue :     7.76600E-06
 

 !! The overlap matrix has   7 vectors deemed linearly dependent with
    eigenvalues:
 1.46D-06 2.24D-06 2.83D-06 3.54D-06 5.28D-06 5.95D-06 7.77D-06
 
 
      Superposition of Atomic Density Guess
      -------------------------------------
 
 Sum of atomic energies:        -228.52307259
 
      Non-variational initial energy
      ------------------------------

 Total energy =    -232.667207
 1-e energy   =    -691.328449
 2-e energy   =     263.597278
 HOMO         =      -0.183324
 LUMO         =      -0.022263
 
   Time after variat. SCF:      9.6
   Time prior to 1st pass:      9.6

 Grid_pts file          = ./mode1174.89-p.gridpts.00
 Record size in doubles =  12289        No. of grid_pts per rec  =   3070
 Max. records in memory =      6        Max. recs in file   = 220561266

 Grid integrated density:      40.999765995796
 Requested integration accuracy:   0.10E-05

           Memory utilization after 1st SCF pass: 
           Heap Space remaining (MW):       12.96            12961276
          Stack Space remaining (MW):       13.10            13103684

   convergence    iter        energy       DeltaE   RMS-Dens  Diis-err    time
 ---------------- ----- ----------------- --------- --------- ---------  ------
 d= 0,ls=0.0,diis     1   -231.5815742975 -4.27D+02  6.17D-02  2.09D-01    19.5
                                                     6.97D-02  1.96D-01
 d= 0,ls=0.0,diis     2   -231.6398345405 -5.83D-02  6.08D-02  1.22D-02    29.3
                                                     6.86D-02  1.25D-02
 d= 0,ls=0.0,diis     3   -231.6446089122 -4.77D-03  1.27D-03  3.44D-03    39.3
                                                     1.38D-03  3.50D-03
 d= 0,ls=0.0,diis     4   -231.6457656580 -1.16D-03  2.03D-04  1.13D-03    49.3
                                                     2.07D-04  1.06D-03
 d= 0,ls=0.0,diis     5   -231.6462840201 -5.18D-04  3.39D-05  4.28D-05    59.3
                                                     3.11D-05  4.88D-05
  Resetting Diis
 d= 0,ls=0.0,diis     6   -231.6463118695 -2.78D-05  1.10D-05  8.31D-06    69.3
                                                     1.06D-05  6.80D-06
 d= 0,ls=0.0,diis     7   -231.6463182234 -6.35D-06  7.50D-06  2.27D-06    79.3
                                                     6.74D-06  2.49D-06
 d= 0,ls=0.0,diis     8   -231.6463190778 -8.54D-07  3.11D-06  6.06D-06    89.4
                                                     2.80D-06  5.43D-06


         Total DFT energy =     -231.646319077765
      One electron energy =     -696.564875067946
           Coulomb energy =      304.263979765494
    Exchange-Corr. energy =      -34.409387202660
 Nuclear repulsion energy =      195.063963427348

 Numeric. integr. density =       40.999984480760

     Total iterative time =     79.8s


 
                    DFT Final Alpha Molecular Orbital Analysis
                    ------------------------------------------
 
 Vector    1  Occ=1.000000D+00  E=-1.020519D+01
              MO Center= -8.7D-02,  1.4D+00,  4.8D-08, r^2= 3.0D-02
   Bfn.  Coefficient  Atom+Function         Bfn.  Coefficient  Atom+Function  
  ----- ------------  ---------------      ----- ------------  ---------------
     1      0.984156   1 C  s                 3      0.058846   1 C  s         
    50     -0.038384   2 C  s               234     -0.038384   6 C  s         
   143      0.037891   4 C  s               279      0.037903   7 H  s         
   371      0.037992  11 H  s                51     -0.030745   2 C  s         
   235     -0.030610   6 C  s               231      0.025614   6 C  s         
 
 Vector    2  Occ=1.000000D+00  E=-1.019188D+01
              MO Center= -1.1D+00, -6.5D-01, -2.4D-08, r^2= 1.8D-01
   Bfn.  Coefficient  Atom+Function         Bfn.  Coefficient  Atom+Function  
  ----- ------------  ---------------      ----- ------------  ---------------
    93      0.958665   3 C  s                47      0.199763   2 C  s         
   185      0.110791   5 C  s               142     -0.077018   4 C  s         
   302      0.057888   8 H  s                95      0.057214   3 C  s         
   234      0.050724   6 C  s               139      0.046822   4 C  s         
   371     -0.041221  11 H  s               325      0.039919   9 H  s         
 
 Vector    3  Occ=1.000000D+00  E=-1.019180D+01
              MO Center=  1.2D+00, -4.8D-01, -1.2D-08, r^2= 2.0D-01
   Bfn.  Coefficient  Atom+Function         Bfn.  Coefficient  Atom+Function  
  ----- ------------  ---------------      ----- ------------  ---------------
   185      0.953741   5 C  s               231      0.223259   6 C  s         
    93     -0.106148   3 C  s               142     -0.062368   4 C  s         
   348      0.061112  10 H  s                50      0.057513   2 C  s         
   187      0.056944   5 C  s               279     -0.047074   7 H  s         
    51      0.046678   2 C  s                47     -0.039345   2 C  s         
 
 Vector    4  Occ=1.000000D+00  E=-1.019046D+01
              MO Center=  1.2D+00,  7.7D-01,  4.5D-08, r^2= 1.6D-01
   Bfn.  Coefficient  Atom+Function         Bfn.  Coefficient  Atom+Function  
  ----- ------------  ---------------      ----- ------------  ---------------
   231      0.957653   6 C  s               185     -0.218336   5 C  s         
    47      0.074808   2 C  s               371      0.058422  11 H  s         
   233      0.055753   6 C  s                97      0.037072   3 C  s         
   143      0.034367   4 C  s                96      0.032898   3 C  s         
     4     -0.030996   1 C  s               235     -0.029958   6 C  s         
 
 Vector    5  Occ=1.000000D+00  E=-1.019040D+01
              MO Center= -1.2D+00,  6.3D-01, -2.3D-08, r^2= 1.4D-01
   Bfn.  Coefficient  Atom+Function         Bfn.  Coefficient  Atom+Function  
  ----- ------------  ---------------      ----- ------------  ---------------
    47      0.961479   2 C  s                93     -0.200391   3 C  s         
   231     -0.066818   6 C  s               279      0.058426   7 H  s         
    49      0.055904   2 C  s               189      0.041907   5 C  s         
   188      0.037571   5 C  s                97     -0.034262   3 C  s         
    12      0.033030   1 C  px               96     -0.032473   3 C  s         
 
 Vector    6  Occ=1.000000D+00  E=-1.018448D+01
              MO Center=  8.3D-02, -1.3D+00,  3.9D-08, r^2= 3.5D-02
   Bfn.  Coefficient  Atom+Function         Bfn.  Coefficient  Atom+Function  
  ----- ------------  ---------------      ----- ------------  ---------------
   139      0.984213   4 C  s               141      0.057789   4 C  s         
   188     -0.046273   5 C  s               325      0.045944   9 H  s         
    96     -0.045516   3 C  s               143     -0.043464   4 C  s         
   185     -0.040888   5 C  s                 4      0.040412   1 C  s         
    93     -0.040048   3 C  s               151      0.036019   4 C  py        
 
 Vector    7  Occ=1.000000D+00  E=-8.725025D-01
              MO Center= -5.5D-03,  9.9D-02,  5.0D-09, r^2= 2.0D+00
   Bfn.  Coefficient  Atom+Function         Bfn.  Coefficient  Atom+Function  
  ----- ------------  ---------------      ----- ------------  ---------------
     2      0.213897   1 C  s                48      0.202686   2 C  s         
   232      0.202782   6 C  s                94      0.195394   3 C  s         
   186      0.195705   5 C  s               140      0.188325   4 C  s         
   234      0.090846   6 C  s                50      0.089468   2 C  s         
    96      0.088124   3 C  s               188      0.088098   5 C  s         
 
 Vector    8  Occ=1.000000D+00  E=-7.627924D-01
              MO Center= -9.0D-03,  1.0D-01,  1.9D-09, r^2= 2.8D+00
   Bfn.  Coefficient  Atom+Function         Bfn.  Coefficient  Atom+Function  
  ----- ------------  ---------------      ----- ------------  ---------------
    48      0.252576   2 C  s               232     -0.249482   6 C  s         
   186     -0.244835   5 C  s                94      0.242457   3 C  s         
    50      0.147215   2 C  s               234     -0.145198   6 C  s         
   279     -0.130549   7 H  s               371      0.128237  11 H  s         
   150     -0.115534   4 C  px               97      0.110894   3 C  s         
 
 Vector    9  Occ=1.000000D+00  E=-7.537677D-01
              MO Center=  1.2D-02, -1.5D-01, -2.7D-08, r^2= 2.6D+00
   Bfn.  Coefficient  Atom+Function         Bfn.  Coefficient  Atom+Function  
  ----- ------------  ---------------      ----- ------------  ---------------
   140     -0.301118   4 C  s                 2      0.278288   1 C  s         
    94     -0.150667   3 C  s               232      0.150867   6 C  s         
   142     -0.147378   4 C  s               186     -0.146733   5 C  s         
    48      0.145473   2 C  s               188     -0.105246   5 C  s         
    96     -0.104487   3 C  s                 4      0.102936   1 C  s         
 
 Vector   10  Occ=1.000000D+00  E=-6.187662D-01
              MO Center= -7.0D-03,  3.8D-02, -1.0D-08, r^2= 3.6D+00
   Bfn.  Coefficient  Atom+Function         Bfn.  Coefficient  Atom+Function  
  ----- ------------  ---------------      ----- ------------  ---------------
    94     -0.209962   3 C  s               186      0.207360   5 C  s         
    48      0.198958   2 C  s               232     -0.199784   6 C  s         
   234     -0.184772   6 C  s                50      0.181943   2 C  s         
    96     -0.147474   3 C  s               188      0.146515   5 C  s         
     6     -0.127192   1 C  px              144      0.117029   4 C  px        
 
 Vector   11  Occ=1.000000D+00  E=-6.035847D-01
              MO Center=  8.4D-03, -8.6D-02, -3.1D-08, r^2= 3.5D+00
   Bfn.  Coefficient  Atom+Function         Bfn.  Coefficient  Atom+Function  
  ----- ------------  ---------------      ----- ------------  ---------------
   142      0.258376   4 C  s                 2      0.239049   1 C  s         
   140      0.218587   4 C  s                 4      0.198659   1 C  s         
   186     -0.140202   5 C  s                94     -0.136657   3 C  s         
    50     -0.124207   2 C  s               234     -0.121211   6 C  s         
   188     -0.120364   5 C  s                96     -0.118193   3 C  s         
 
 Vector   12  Occ=1.000000D+00  E=-5.277728D-01
              MO Center=  1.2D-02, -1.5D-01, -1.1D-08, r^2= 4.1D+00
   Bfn.  Coefficient  Atom+Function         Bfn.  Coefficient  Atom+Function  
  ----- ------------  ---------------      ----- ------------  ---------------
   148      0.159315   4 C  py              145      0.138866   4 C  py        
   324     -0.126845   9 H  s                55      0.105544   2 C  px        
   240     -0.105556   6 C  py              323     -0.100405   9 H  s         
   237     -0.096771   6 C  py              370     -0.094621  11 H  s         
   193     -0.094090   5 C  px              278     -0.094298   7 H  s         
 
 Vector   13  Occ=1.000000D+00  E=-4.645784D-01
              MO Center=  1.1D-02,  1.0D-01,  1.8D-09, r^2= 2.7D+00
   Bfn.  Coefficient  Atom+Function         Bfn.  Coefficient  Atom+Function  
  ----- ------------  ---------------      ----- ------------  ---------------
     9      0.188677   1 C  px                6      0.175109   1 C  px        
   147      0.172279   4 C  px              144      0.158959   4 C  px        
   239     -0.142514   6 C  px              194     -0.137748   5 C  py        
    56     -0.131915   2 C  py              236     -0.127230   6 C  px        
   101     -0.125982   3 C  px              191     -0.123930   5 C  py        
 
 Vector   14  Occ=1.000000D+00  E=-4.631715D-01
              MO Center= -8.9D-03, -1.6D-01, -4.5D-08, r^2= 4.8D+00
   Bfn.  Coefficient  Atom+Function         Bfn.  Coefficient  Atom+Function  
  ----- ------------  ---------------      ----- ------------  ---------------
     2      0.176289   1 C  s               347      0.137932  10 H  s         
   301      0.135206   8 H  s               193      0.133597   5 C  px        
   140     -0.129135   4 C  s               190      0.123646   5 C  px        
   196      0.122289   5 C  px               96      0.118862   3 C  s         
   188      0.115725   5 C  s               104     -0.114762   3 C  px        
 
 Vector   15  Occ=1.000000D+00  E=-4.400162D-01
              MO Center= -1.6D-02,  2.1D-01, -2.5D-08, r^2= 4.0D+00
   Bfn.  Coefficient  Atom+Function         Bfn.  Coefficient  Atom+Function  
  ----- ------------  ---------------      ----- ------------  ---------------
   240      0.143883   6 C  py              102      0.139479   3 C  py        
   237      0.132791   6 C  py              278     -0.131199   7 H  s         
   370      0.131590  11 H  s                99      0.130457   3 C  py        
    55      0.129378   2 C  px               56     -0.128988   2 C  py        
   194     -0.126635   5 C  py               53     -0.119854   2 C  py        
 
 Vector   16  Occ=1.000000D+00  E=-3.990959D-01
              MO Center=  5.1D-02, -7.8D-01, -9.6D-09, r^2= 3.3D+00
   Bfn.  Coefficient  Atom+Function         Bfn.  Coefficient  Atom+Function  
  ----- ------------  ---------------      ----- ------------  ---------------
   148      0.233561   4 C  py              145      0.209190   4 C  py        
   324     -0.198464   9 H  s               151      0.172793   4 C  py        
   323     -0.154000   9 H  s                10      0.138517   1 C  py        
    13      0.120894   1 C  py              240      0.115388   6 C  py        
    56      0.109406   2 C  py              194     -0.108491   5 C  py        
 
 Vector   17  Occ=1.000000D+00  E=-3.837243D-01
              MO Center= -7.0D-03,  1.2D-01, -5.9D-08, r^2= 2.7D+00
   Bfn.  Coefficient  Atom+Function         Bfn.  Coefficient  Atom+Function  
  ----- ------------  ---------------      ----- ------------  ---------------
    11      0.173061   1 C  pz               57      0.156602   2 C  pz        
   241      0.156683   6 C  pz              103      0.151982   3 C  pz        
   195      0.152145   5 C  pz              149      0.146157   4 C  pz        
     8      0.136557   1 C  pz               54      0.125899   2 C  pz        
   238      0.125962   6 C  pz              100      0.121560   3 C  pz        
 
 Vector   18  Occ=1.000000D+00  E=-3.660238D-01
              MO Center=  9.6D-03, -1.4D-01, -2.8D-08, r^2= 4.1D+00
   Bfn.  Coefficient  Atom+Function         Bfn.  Coefficient  Atom+Function  
  ----- ------------  ---------------      ----- ------------  ---------------
   147     -0.169334   4 C  px              101      0.164924   3 C  px        
   193      0.165213   5 C  px              144     -0.159856   4 C  px        
     9      0.149368   1 C  px               98      0.149287   3 C  px        
   190      0.149261   5 C  px                6      0.141604   1 C  px        
   196      0.135845   5 C  px              104      0.133175   3 C  px        
 
 Vector   19  Occ=1.000000D+00  E=-2.685151D-01
              MO Center=  9.0D-03, -1.6D-02,  7.8D-08, r^2= 3.0D+00
   Bfn.  Coefficient  Atom+Function         Bfn.  Coefficient  Atom+Function  
  ----- ------------  ---------------      ----- ------------  ---------------
    11      0.243679   1 C  pz              149     -0.238196   4 C  pz        
     8      0.191690   1 C  pz              146     -0.190378   4 C  pz        
    14      0.175134   1 C  pz              152     -0.171434   4 C  pz        
   195     -0.144206   5 C  pz               57      0.132821   2 C  pz        
   192     -0.115258   5 C  pz              103     -0.107130   3 C  pz        
 
 Vector   20  Occ=1.000000D+00  E=-2.679238D-01
              MO Center= -1.3D-02,  6.3D-02,  2.8D-07, r^2= 3.1D+00
   Bfn.  Coefficient  Atom+Function         Bfn.  Coefficient  Atom+Function  
  ----- ------------  ---------------      ----- ------------  ---------------
   103      0.217520   3 C  pz              241     -0.213717   6 C  pz        
   195     -0.194780   5 C  pz               57      0.193373   2 C  pz        
   100      0.173369   3 C  pz              238     -0.171055   6 C  pz        
   106      0.157085   3 C  pz              244     -0.157220   6 C  pz        
    54      0.154849   2 C  pz              192     -0.155196   5 C  pz        
 
 Vector   21  Occ=1.000000D+00  E=-2.483359D-01
              MO Center= -8.2D-02,  1.3D+00,  8.2D-08, r^2= 2.3D+00
   Bfn.  Coefficient  Atom+Function         Bfn.  Coefficient  Atom+Function  
  ----- ------------  ---------------      ----- ------------  ---------------
    10      0.385935   1 C  py               13      0.337746   1 C  py        
     5      0.335489   1 C  s                 7      0.299349   1 C  py        
     4      0.279421   1 C  s                 2      0.138444   1 C  s         
   243     -0.136076   6 C  py               59     -0.134202   2 C  py        
   102      0.112399   3 C  py              194      0.112241   5 C  py        
 
 Vector   22  Occ=0.000000D+00  E=-2.605410D-02
              MO Center= -5.7D-03,  6.5D-02, -1.1D-06, r^2= 4.3D+00
   Bfn.  Coefficient  Atom+Function         Bfn.  Coefficient  Atom+Function  
  ----- ------------  ---------------      ----- ------------  ---------------
   109     -0.321987   3 C  pz              201      0.318480   5 C  pz        
   247     -0.315389   6 C  pz               63      0.312784   2 C  pz        
   244     -0.227503   6 C  pz               60      0.225911   2 C  pz        
   106     -0.225265   3 C  pz              198      0.222673   5 C  pz        
   241     -0.219460   6 C  pz               57      0.217751   2 C  pz        
 
 Vector   23  Occ=0.000000D+00  E=-1.862174D-02
              MO Center=  4.0D-03, -4.7D-02, -4.1D-06, r^2= 4.3D+00
   Bfn.  Coefficient  Atom+Function         Bfn.  Coefficient  Atom+Function  
  ----- ------------  ---------------      ----- ------------  ---------------
   155      0.439209   4 C  pz               17      0.373830   1 C  pz        
   152      0.273705   4 C  pz               11      0.259155   1 C  pz        
   149      0.250610   4 C  pz               14      0.240763   1 C  pz        
   201     -0.229446   5 C  pz              109     -0.223386   3 C  pz        
     8      0.200856   1 C  pz               63     -0.200447   2 C  pz        
 
 Vector   24  Occ=0.000000D+00  E=-1.011855D-02
              MO Center=  6.3D-02, -9.5D-01, -2.2D-06, r^2= 2.0D+01
   Bfn.  Coefficient  Atom+Function         Bfn.  Coefficient  Atom+Function  
  ----- ------------  ---------------      ----- ------------  ---------------
     5      1.445657   1 C  s               279     -0.976652   7 H  s         
   371     -0.975924  11 H  s               326     -0.742013   9 H  s         
   303     -0.729436   8 H  s               349     -0.731207  10 H  s         
   302     -0.649447   8 H  s               348     -0.650718  10 H  s         
   325     -0.588099   9 H  s                51      0.562846   2 C  s         
 
 Vector   25  Occ=0.000000D+00  E= 4.376752D-03
              MO Center=  1.7D-03, -2.6D-01, -9.4D-06, r^2= 2.7D+01
   Bfn.  Coefficient  Atom+Function         Bfn.  Coefficient  Atom+Function  
  ----- ------------  ---------------      ----- ------------  ---------------
    51      2.749947   2 C  s               235     -2.712417   6 C  s         
    97      2.672616   3 C  s               189     -2.672052   5 C  s         
   303      1.996057   8 H  s               349     -1.997671  10 H  s         
    15      1.866158   1 C  px              153      1.807795   4 C  px        
   280      1.548530   7 H  s               372     -1.530196  11 H  s         
 
 Vector   26  Occ=0.000000D+00  E= 8.725331D-03
              MO Center=  1.9D-02, -7.3D-02,  5.5D-05, r^2= 2.7D+01
   Bfn.  Coefficient  Atom+Function         Bfn.  Coefficient  Atom+Function  
  ----- ------------  ---------------      ----- ------------  ---------------
   143      6.244966   4 C  s               235     -4.024138   6 C  s         
    51     -3.994354   2 C  s               326      2.932819   9 H  s         
     5      2.588997   1 C  s               372     -2.396315  11 H  s         
   280     -2.379824   7 H  s               154      1.947622   4 C  py        
   246      1.929808   6 C  py               62      1.834822   2 C  py        
 
 Vector   27  Occ=0.000000D+00  E= 2.670402D-02
              MO Center= -2.5D-02,  2.4D-01, -2.4D-05, r^2= 3.1D+01
   Bfn.  Coefficient  Atom+Function         Bfn.  Coefficient  Atom+Function  
  ----- ------------  ---------------      ----- ------------  ---------------
   280      3.939938   7 H  s               372     -3.924819  11 H  s         
    51      3.670149   2 C  s               235     -3.646098   6 C  s         
   303     -3.608009   8 H  s               349      3.595521  10 H  s         
    61      2.225495   2 C  px               97     -2.188046   3 C  s         
   189      2.192173   5 C  s               199     -2.040195   5 C  px        
 
 Vector   28  Occ=0.000000D+00  E= 3.221352D-02
              MO Center=  4.6D-02, -6.2D-01, -1.2D-04, r^2= 2.9D+01
   Bfn.  Coefficient  Atom+Function         Bfn.  Coefficient  Atom+Function  
  ----- ------------  ---------------      ----- ------------  ---------------
     5      6.395997   1 C  s               326     -4.996804   9 H  s         
   349      3.737104  10 H  s               303      3.715263   8 H  s         
   189     -2.185450   5 C  s                97     -2.172162   3 C  s         
   154     -2.174916   4 C  py              199     -1.652603   5 C  px        
   245      1.638141   6 C  px               61     -1.576906   2 C  px        
 
 Vector   29  Occ=0.000000D+00  E= 4.329039D-02
              MO Center=  1.5D-02, -2.2D-01,  9.6D-06, r^2= 1.3D+01
   Bfn.  Coefficient  Atom+Function         Bfn.  Coefficient  Atom+Function  
  ----- ------------  ---------------      ----- ------------  ---------------
   155      0.598939   4 C  pz               63      0.576260   2 C  pz        
   247      0.575813   6 C  pz               17     -0.260369   1 C  pz        
    60     -0.155240   2 C  pz              244     -0.154927   6 C  pz        
   289     -0.123518   7 H  pz              381     -0.123576  11 H  pz        
   259      0.120214   6 C  d -1             77      0.109957   2 C  d  1      
 
 Vector   30  Occ=0.000000D+00  E= 5.495226D-02
              MO Center=  1.2D-02, -1.5D-01, -4.0D-05, r^2= 1.5D+01
   Bfn.  Coefficient  Atom+Function         Bfn.  Coefficient  Atom+Function  
  ----- ------------  ---------------      ----- ------------  ---------------
     5     10.701050   1 C  s               143      5.281063   4 C  s         
    51     -4.496353   2 C  s               235     -4.474098   6 C  s         
   349     -2.811872  10 H  s               303     -2.786734   8 H  s         
   326      2.058171   9 H  s               199      2.009761   5 C  px        
   189     -1.966606   5 C  s                97     -1.931669   3 C  s         
 
 Vector   31  Occ=0.000000D+00  E= 6.334933D-02
              MO Center= -4.2D-02,  6.5D-01, -1.0D-04, r^2= 2.8D+01
   Bfn.  Coefficient  Atom+Function         Bfn.  Coefficient  Atom+Function  
  ----- ------------  ---------------      ----- ------------  ---------------
     5     24.385300   1 C  s                51     -9.848648   2 C  s         
   235     -9.867296   6 C  s               143      7.628948   4 C  s         
    97     -6.510000   3 C  s               189     -6.513724   5 C  s         
   326      5.866164   9 H  s               154      4.771397   4 C  py        
   303     -4.684180   8 H  s               349     -4.681298  10 H  s         
 
 Vector   32  Occ=0.000000D+00  E= 6.574287D-02
              MO Center= -1.8D-03, -2.3D-02,  5.4D-04, r^2= 1.8D+01
   Bfn.  Coefficient  Atom+Function         Bfn.  Coefficient  Atom+Function  
  ----- ------------  ---------------      ----- ------------  ---------------
   201     -0.978122   5 C  pz              109      0.972207   3 C  pz        
    63      0.776434   2 C  pz              247     -0.766797   6 C  pz        
   169     -0.677175   4 C  d  1             31     -0.583258   1 C  d  1      
   106      0.493373   3 C  pz              198     -0.490641   5 C  pz        
   244     -0.490139   6 C  pz               60      0.487106   2 C  pz        
 
 Vector   33  Occ=0.000000D+00  E= 6.825445D-02
              MO Center= -8.8D-03,  1.9D-01, -2.7D-04, r^2= 1.8D+01
   Bfn.  Coefficient  Atom+Function         Bfn.  Coefficient  Atom+Function  
  ----- ------------  ---------------      ----- ------------  ---------------
   247      1.029567   6 C  pz               63      1.020601   2 C  pz        
   109     -0.812516   3 C  pz              201     -0.807072   5 C  pz        
   155     -0.753939   4 C  pz               14      0.629247   1 C  pz        
   152     -0.618347   4 C  pz               17      0.456554   1 C  pz        
   213     -0.452258   5 C  d -1            261     -0.406037   6 C  d  1      
 
 Vector   34  Occ=0.000000D+00  E= 7.645029D-02
              MO Center=  1.2D-02, -1.6D-01, -1.3D-04, r^2= 3.4D+01
   Bfn.  Coefficient  Atom+Function         Bfn.  Coefficient  Atom+Function  
  ----- ------------  ---------------      ----- ------------  ---------------
    51     14.104744   2 C  s               235    -13.624283   6 C  s         
    97     12.378040   3 C  s               189    -12.436174   5 C  s         
   153      7.714362   4 C  px               15      7.673683   1 C  px        
   107      4.835481   3 C  px              349     -4.708769  10 H  s         
   303      4.671222   8 H  s               199      4.401332   5 C  px        
 
 Vector   35  Occ=0.000000D+00  E= 7.791019D-02
              MO Center=  1.9D-01, -3.3D+00,  1.3D-04, r^2= 2.1D+01
   Bfn.  Coefficient  Atom+Function         Bfn.  Coefficient  Atom+Function  
  ----- ------------  ---------------      ----- ------------  ---------------
   143     18.266762   4 C  s               235    -13.685860   6 C  s         
    51    -13.193932   2 C  s               326      7.027205   9 H  s         
    62      5.693898   2 C  py              246      5.643026   6 C  py        
   200      5.452214   5 C  py              154      5.279673   4 C  py        
   108      4.982952   3 C  py              279      4.194207   7 H  s         
 
 Vector   36  Occ=0.000000D+00  E= 8.154717D-02
              MO Center= -6.8D-02,  1.4D+00,  7.1D-05, r^2= 2.8D+01
   Bfn.  Coefficient  Atom+Function         Bfn.  Coefficient  Atom+Function  
  ----- ------------  ---------------      ----- ------------  ---------------
   143     20.706255   4 C  s                51     -8.939187   2 C  s         
   235     -8.946720   6 C  s               246      5.235704   6 C  py        
    62      5.191268   2 C  py              325     -4.964694   9 H  s         
   280     -4.572572   7 H  s               372     -4.556078  11 H  s         
   326      4.499045   9 H  s               200      4.446981   5 C  py        
 
 Vector   37  Occ=0.000000D+00  E= 8.316836D-02
              MO Center=  3.4D-02, -7.3D-01, -1.2D-05, r^2= 2.2D+01
   Bfn.  Coefficient  Atom+Function         Bfn.  Coefficient  Atom+Function  
  ----- ------------  ---------------      ----- ------------  ---------------
   189     -5.008374   5 C  s                97      4.884195   3 C  s         
   235      3.155650   6 C  s                51     -3.109653   2 C  s         
   303      2.831061   8 H  s               108      2.776376   3 C  py        
   349     -2.781142  10 H  s               200     -2.705808   5 C  py        
   153      2.606155   4 C  px              188     -2.103597   5 C  s         
 
 Vector   38  Occ=0.000000D+00  E= 9.540195D-02
              MO Center= -5.9D-02,  8.8D-01,  1.5D-05, r^2= 3.1D+01
   Bfn.  Coefficient  Atom+Function         Bfn.  Coefficient  Atom+Function  
  ----- ------------  ---------------      ----- ------------  ---------------
    51     17.746931   2 C  s               235    -17.613977   6 C  s         
   280      7.226319   7 H  s               372     -7.207347  11 H  s         
    97     -6.915350   3 C  s               189      6.894710   5 C  s         
   108     -6.485523   3 C  py              303     -6.204916   8 H  s         
   349      6.197577  10 H  s               200      5.888205   5 C  py        
 
 Vector   39  Occ=0.000000D+00  E= 1.017971D-01
              MO Center= -3.3D-03,  1.1D-01, -3.3D-04, r^2= 1.9D+01
   Bfn.  Coefficient  Atom+Function         Bfn.  Coefficient  Atom+Function  
  ----- ------------  ---------------      ----- ------------  ---------------
    51     13.737617   2 C  s               235    -13.736812   6 C  s         
    97     10.881051   3 C  s               189    -10.882682   5 C  s         
    15      9.999500   1 C  px              153      9.716219   4 C  px        
   246     -6.106750   6 C  py              108     -6.024157   3 C  py        
   200      5.991737   5 C  py               62      5.899832   2 C  py        
 
 Vector   40  Occ=0.000000D+00  E= 1.064718D-01
              MO Center= -1.5D-02,  1.3D-01, -5.6D-04, r^2= 2.1D+01
   Bfn.  Coefficient  Atom+Function         Bfn.  Coefficient  Atom+Function  
  ----- ------------  ---------------      ----- ------------  ---------------
   143     18.279229   4 C  s                51     -9.940807   2 C  s         
   235     -9.937548   6 C  s                 5     -9.462863   1 C  s         
   107     -8.771854   3 C  px              199      7.963567   5 C  px        
   245     -7.024462   6 C  px              200      6.727772   5 C  py        
    61      6.508818   2 C  px              108      5.672930   3 C  py        
 
 Vector   41  Occ=0.000000D+00  E= 1.081993D-01
              MO Center= -1.9D-02,  1.6D-01, -9.3D-05, r^2= 2.2D+01
   Bfn.  Coefficient  Atom+Function         Bfn.  Coefficient  Atom+Function  
  ----- ------------  ---------------      ----- ------------  ---------------
    63      3.384953   2 C  pz              109     -3.400721   3 C  pz        
   247     -3.397039   6 C  pz              201      3.326449   5 C  pz        
    60      0.695043   2 C  pz              244     -0.697800   6 C  pz        
   106     -0.644274   3 C  pz              198      0.629934   5 C  pz        
    77     -0.377396   2 C  d  1            215      0.356550   5 C  d  1      
 
 Vector   42  Occ=0.000000D+00  E= 1.089640D-01
              MO Center=  3.8D-02, -4.7D-01,  2.2D-03, r^2= 2.1D+01
   Bfn.  Coefficient  Atom+Function         Bfn.  Coefficient  Atom+Function  
  ----- ------------  ---------------      ----- ------------  ---------------
   155      5.322374   4 C  pz              201     -3.484284   5 C  pz        
   109     -3.405598   3 C  pz               17      2.508887   1 C  pz        
   152      0.982918   4 C  pz              198     -0.611297   5 C  pz        
   106     -0.596107   3 C  pz              167      0.569711   4 C  d -1      
    63     -0.509678   2 C  pz               14      0.504953   1 C  pz        
 
 Vector   43  Occ=0.000000D+00  E= 1.094926D-01
              MO Center=  3.7D-02, -4.5D-01, -1.2D-03, r^2= 2.7D+01
   Bfn.  Coefficient  Atom+Function         Bfn.  Coefficient  Atom+Function  
  ----- ------------  ---------------      ----- ------------  ---------------
   326      7.669072   9 H  s               154      7.053380   4 C  py        
   349     -6.498893  10 H  s               303     -6.455946   8 H  s         
   143     -5.604190   4 C  s               108     -4.404592   3 C  py        
   200     -4.208540   5 C  py               62     -4.170750   2 C  py        
   246     -4.121019   6 C  py                4      3.926391   1 C  s         
 
 Vector   44  Occ=0.000000D+00  E= 1.177932D-01
              MO Center= -4.2D-02,  6.5D-01, -4.2D-04, r^2= 1.4D+01
   Bfn.  Coefficient  Atom+Function         Bfn.  Coefficient  Atom+Function  
  ----- ------------  ---------------      ----- ------------  ---------------
    17      6.876627   1 C  pz               63     -6.020472   2 C  pz        
   247     -6.019453   6 C  pz              109      5.048967   3 C  pz        
   201      5.049317   5 C  pz              155     -4.819343   4 C  pz        
    14      1.235263   1 C  pz               60     -1.019803   2 C  pz        
   244     -1.019922   6 C  pz              106      0.892247   3 C  pz        
 
 Vector   45  Occ=0.000000D+00  E= 1.264035D-01
              MO Center= -1.8D-02,  2.9D-01, -1.9D-05, r^2= 2.5D+01
   Bfn.  Coefficient  Atom+Function         Bfn.  Coefficient  Atom+Function  
  ----- ------------  ---------------      ----- ------------  ---------------
    51      7.609985   2 C  s               235     -7.572393   6 C  s         
   107      7.194550   3 C  px              199      7.135383   5 C  px        
   245     -7.048815   6 C  px               61     -6.914491   2 C  px        
    15      6.445938   1 C  px               97     -6.181392   3 C  s         
   189      6.205078   5 C  s               153     -5.817017   4 C  px        
 
 Vector   46  Occ=0.000000D+00  E= 1.274464D-01
              MO Center= -1.3D-02,  1.9D-01,  1.3D-04, r^2= 2.6D+01
   Bfn.  Coefficient  Atom+Function         Bfn.  Coefficient  Atom+Function  
  ----- ------------  ---------------      ----- ------------  ---------------
   154     -8.031203   4 C  py               16      7.425660   1 C  py        
   108      6.898231   3 C  py               62     -6.575238   2 C  py        
   200      6.563201   5 C  py              246     -6.383173   6 C  py        
   326     -4.049687   9 H  s                 5      3.557851   1 C  s         
   303      3.163217   8 H  s               349      3.165583  10 H  s         
 
 Vector   47  Occ=0.000000D+00  E= 1.609403D-01
              MO Center= -8.1D-03,  1.4D-01,  9.4D-05, r^2= 1.7D+01
   Bfn.  Coefficient  Atom+Function         Bfn.  Coefficient  Atom+Function  
  ----- ------------  ---------------      ----- ------------  ---------------
    17      8.197058   1 C  pz               63     -8.006361   2 C  pz        
   247     -8.008614   6 C  pz              155     -7.858060   4 C  pz        
   109      7.770224   3 C  pz              201      7.775800   5 C  pz        
    60     -1.192428   2 C  pz              106      1.192675   3 C  pz        
   198      1.192653   5 C  pz              244     -1.193211   6 C  pz        
 
 Vector   48  Occ=0.000000D+00  E= 1.660213D-01
              MO Center= -8.9D-02,  1.4D+00,  3.1D-04, r^2= 2.2D+01
   Bfn.  Coefficient  Atom+Function         Bfn.  Coefficient  Atom+Function  
  ----- ------------  ---------------      ----- ------------  ---------------
     5     59.201694   1 C  s                51    -25.944157   2 C  s         
   143     25.975577   4 C  s               235    -26.025166   6 C  s         
   189    -14.493523   5 C  s                97    -14.327586   3 C  s         
   154      7.426957   4 C  py              245      6.820770   6 C  px        
    61     -6.397254   2 C  px              326      6.155276   9 H  s         
 
 Vector   49  Occ=0.000000D+00  E= 1.754181D-01
              MO Center=  2.5D-02, -3.9D-01, -1.6D-04, r^2= 1.1D+01
   Bfn.  Coefficient  Atom+Function         Bfn.  Coefficient  Atom+Function  
  ----- ------------  ---------------      ----- ------------  ---------------
   335      1.104732   9 H  pz              312      1.079132   8 H  pz        
   358      1.079622  10 H  pz              289      0.972430   7 H  pz        
   381      0.973022  11 H  pz               17      0.953665   1 C  pz        
    63     -0.880802   2 C  pz              247     -0.877549   6 C  pz        
   106     -0.845335   3 C  pz              198     -0.842412   5 C  pz        
 
 Vector   50  Occ=0.000000D+00  E= 1.864090D-01
              MO Center=  3.3D-02, -5.5D-01,  9.3D-05, r^2= 1.5D+01
   Bfn.  Coefficient  Atom+Function         Bfn.  Coefficient  Atom+Function  
  ----- ------------  ---------------      ----- ------------  ---------------
     5     15.550646   1 C  s                97     -7.306300   3 C  s         
   189     -7.258013   5 C  s               235     -4.704881   6 C  s         
   325      4.422529   9 H  s                51     -4.290621   2 C  s         
    62     -4.048834   2 C  py              154      3.990221   4 C  py        
   246     -3.815225   6 C  py              348      3.318892  10 H  s         
 
 Vector   51  Occ=0.000000D+00  E= 1.980354D-01
              MO Center= -2.6D-02,  4.7D-01,  3.6D-04, r^2= 2.3D+01
   Bfn.  Coefficient  Atom+Function         Bfn.  Coefficient  Atom+Function  
  ----- ------------  ---------------      ----- ------------  ---------------
    51     44.639310   2 C  s               235    -44.561479   6 C  s         
    97     25.243576   3 C  s               189    -25.151431   5 C  s         
    15     18.495580   1 C  px              153     17.065824   4 C  px        
   302    -14.056999   8 H  s               348     13.966014  10 H  s         
   200      9.230579   5 C  py              108     -8.507557   3 C  py        
 
 Vector   52  Occ=0.000000D+00  E= 1.984339D-01
              MO Center=  4.0D-02, -7.3D-01, -5.0D-04, r^2= 2.3D+01
   Bfn.  Coefficient  Atom+Function         Bfn.  Coefficient  Atom+Function  
  ----- ------------  ---------------      ----- ------------  ---------------
   143     61.328490   4 C  s                51    -34.682159   2 C  s         
   235    -34.394609   6 C  s               325    -16.865101   9 H  s         
    62     14.778420   2 C  py              246     14.396444   6 C  py        
   200     13.719487   5 C  py              108     12.610357   3 C  py        
     5    -11.582695   1 C  s               279     11.193412   7 H  s         
 
 Vector   53  Occ=0.000000D+00  E= 2.154158D-01
              MO Center=  1.2D-01, -1.4D+00, -4.4D-05, r^2= 1.5D+01
   Bfn.  Coefficient  Atom+Function         Bfn.  Coefficient  Atom+Function  
  ----- ------------  ---------------      ----- ------------  ---------------
   189    -14.034134   5 C  s                97     13.666189   3 C  s         
   188     -6.633106   5 C  s                96      6.449770   3 C  s         
   153      6.333013   4 C  px              371      5.306750  11 H  s         
   279     -4.954954   7 H  s               303      4.765446   8 H  s         
   349     -4.687692  10 H  s                62      4.427122   2 C  py        
 
 Vector   54  Occ=0.000000D+00  E= 2.182506D-01
              MO Center= -8.8D-03, -2.8D-01, -2.0D-04, r^2= 1.5D+01
   Bfn.  Coefficient  Atom+Function         Bfn.  Coefficient  Atom+Function  
  ----- ------------  ---------------      ----- ------------  ---------------
   143     25.678511   4 C  s                51    -18.912567   2 C  s         
   235    -16.523413   6 C  s                 5     15.935963   1 C  s         
    16     -6.463534   1 C  py              325     -6.024222   9 H  s         
   246      5.114091   6 C  py               62      4.433325   2 C  py        
   279      3.932936   7 H  s                97     -3.556261   3 C  s         
 
 Vector   55  Occ=0.000000D+00  E= 2.191081D-01
              MO Center= -9.2D-03, -9.4D-02,  1.1D-03, r^2= 1.5D+01
   Bfn.  Coefficient  Atom+Function         Bfn.  Coefficient  Atom+Function  
  ----- ------------  ---------------      ----- ------------  ---------------
   235     20.827900   6 C  s                51    -18.717400   2 C  s         
   200     -8.334611   5 C  py              108      8.264861   3 C  py        
    15     -7.528939   1 C  px              302      6.935475   8 H  s         
   348     -6.919707  10 H  s               153     -6.275148   4 C  px        
    62     -4.166745   2 C  py              246      3.724850   6 C  py        
 
 Vector   56  Occ=0.000000D+00  E= 2.301181D-01
              MO Center= -2.4D-02,  2.9D-01,  1.9D-03, r^2= 1.8D+01
   Bfn.  Coefficient  Atom+Function         Bfn.  Coefficient  Atom+Function  
  ----- ------------  ---------------      ----- ------------  ---------------
   199      4.822893   5 C  px              107      4.748899   3 C  px        
   153     -3.561629   4 C  px               50     -3.304911   2 C  s         
   234      3.243835   6 C  s               303      3.199361   8 H  s         
   349     -3.121640  10 H  s                15     -2.625458   1 C  px        
   108      2.365990   3 C  py               59      1.979607   2 C  py        
 
 Vector   57  Occ=0.000000D+00  E= 2.311907D-01
              MO Center= -4.8D-03,  1.7D-03, -3.8D-03, r^2= 1.6D+01
   Bfn.  Coefficient  Atom+Function         Bfn.  Coefficient  Atom+Function  
  ----- ------------  ---------------      ----- ------------  ---------------
   106      2.140825   3 C  pz              198     -2.143071   5 C  pz        
    60      2.045711   2 C  pz              244     -2.049642   6 C  pz        
   312     -1.816473   8 H  pz              358      1.819656  10 H  pz        
   289     -1.724988   7 H  pz              381      1.716230  11 H  pz        
   169     -1.379142   4 C  d  1             31     -1.247643   1 C  d  1      
 
 Vector   58  Occ=0.000000D+00  E= 2.354007D-01
              MO Center= -3.8D-02,  2.1D-01,  3.5D-04, r^2= 1.6D+01
   Bfn.  Coefficient  Atom+Function         Bfn.  Coefficient  Atom+Function  
  ----- ------------  ---------------      ----- ------------  ---------------
   143     14.883025   4 C  s                51    -13.048706   2 C  s         
   107     -8.047389   3 C  px              199      7.908513   5 C  px        
   235     -7.818522   6 C  s                61      5.381926   2 C  px        
   245     -5.243250   6 C  px              349     -4.746516  10 H  s         
     5      4.047030   1 C  s               303     -4.058518   8 H  s         
 
 Vector   59  Occ=0.000000D+00  E= 2.365075D-01
              MO Center=  4.1D-02,  7.6D-02,  1.2D-03, r^2= 1.7D+01
   Bfn.  Coefficient  Atom+Function         Bfn.  Coefficient  Atom+Function  
  ----- ------------  ---------------      ----- ------------  ---------------
    97    -33.016137   3 C  s               189     33.108492   5 C  s         
   235    -32.323747   6 C  s                51     30.508383   2 C  s         
    96    -14.536473   3 C  s               188     14.134479   5 C  s         
   279     10.954331   7 H  s               302    -10.630445   8 H  s         
   348     10.598432  10 H  s               371    -10.570326  11 H  s         
 
 Vector   60  Occ=0.000000D+00  E= 2.434369D-01
              MO Center=  8.0D-03, -4.4D-02, -4.8D-04, r^2= 1.5D+01
   Bfn.  Coefficient  Atom+Function         Bfn.  Coefficient  Atom+Function  
  ----- ------------  ---------------      ----- ------------  ---------------
   152      3.415029   4 C  pz               14     -3.023952   1 C  pz        
   289      2.167355   7 H  pz              381      2.174071  11 H  pz        
   335     -2.124829   9 H  pz              261      1.999311   6 C  d  1      
    77     -1.987600   2 C  d  1            247     -1.604903   6 C  pz        
    63     -1.593181   2 C  pz              155      1.372343   4 C  pz        
 
 Vector   61  Occ=0.000000D+00  E= 2.594943D-01
              MO Center=  4.8D-02, -6.0D-01,  6.4D-05, r^2= 1.7D+01
   Bfn.  Coefficient  Atom+Function         Bfn.  Coefficient  Atom+Function  
  ----- ------------  ---------------      ----- ------------  ---------------
     5      8.766216   1 C  s               108     -6.615280   3 C  py        
   200     -6.103697   5 C  py              349     -5.213759  10 H  s         
   303     -5.168364   8 H  s               199      5.116780   5 C  px        
   197     -4.901448   5 C  py              143     -4.756986   4 C  s         
   105     -4.667487   3 C  py              154      4.400778   4 C  py        
 
 Vector   62  Occ=0.000000D+00  E= 2.620148D-01
              MO Center=  6.6D-02, -1.1D+00, -5.2D-05, r^2= 1.7D+01
   Bfn.  Coefficient  Atom+Function         Bfn.  Coefficient  Atom+Function  
  ----- ------------  ---------------      ----- ------------  ---------------
     5     18.940815   1 C  s               154     15.358932   4 C  py        
   143     15.165832   4 C  s                51    -14.786884   2 C  s         
   235    -14.332467   6 C  s               326      9.176049   9 H  s         
     4      6.018553   1 C  s               189     -4.758954   5 C  s         
   108     -4.689622   3 C  py               97     -4.547740   3 C  s         
 
 Vector   63  Occ=0.000000D+00  E= 2.676630D-01
              MO Center= -4.6D-02,  4.3D-01,  6.2D-05, r^2= 2.0D+01
   Bfn.  Coefficient  Atom+Function         Bfn.  Coefficient  Atom+Function  
  ----- ------------  ---------------      ----- ------------  ---------------
   235    -20.354958   6 C  s                51     20.045687   2 C  s         
    97    -11.990504   3 C  s               189     11.842396   5 C  s         
    61     10.998000   2 C  px              245     10.272978   6 C  px        
    96     -8.785184   3 C  s               279      8.772187   7 H  s         
   188      8.728507   5 C  s               371     -8.755964  11 H  s         
 
 Vector   64  Occ=0.000000D+00  E= 2.747895D-01
              MO Center= -5.5D-03,  2.3D-02,  6.8D-05, r^2= 1.4D+01
   Bfn.  Coefficient  Atom+Function         Bfn.  Coefficient  Atom+Function  
  ----- ------------  ---------------      ----- ------------  ---------------
   143      8.951849   4 C  s                 5      8.702845   1 C  s         
   154      5.762781   4 C  py              279     -5.672035   7 H  s         
   371     -5.637220  11 H  s               302     -4.675765   8 H  s         
   348     -4.624430  10 H  s               325     -4.360798   9 H  s         
    16     -4.033353   1 C  py              246      3.254531   6 C  py        
 
 Vector   65  Occ=0.000000D+00  E= 2.829742D-01
              MO Center=  3.6D-03,  1.8D-01, -1.8D-05, r^2= 1.6D+01
   Bfn.  Coefficient  Atom+Function         Bfn.  Coefficient  Atom+Function  
  ----- ------------  ---------------      ----- ------------  ---------------
    12      9.527852   1 C  px               97      8.904028   3 C  s         
   189     -8.894013   5 C  s                51     -8.063076   2 C  s         
   302      8.091064   8 H  s               348     -8.101827  10 H  s         
   235      7.970837   6 C  s               199      7.676013   5 C  px        
   107      7.125595   3 C  px              150      6.188074   4 C  px        
 
 Vector   66  Occ=0.000000D+00  E= 2.954296D-01
              MO Center= -7.9D-03,  5.0D-02, -2.2D-05, r^2= 1.6D+01
   Bfn.  Coefficient  Atom+Function         Bfn.  Coefficient  Atom+Function  
  ----- ------------  ---------------      ----- ------------  ---------------
    63      3.202615   2 C  pz              109     -3.194797   3 C  pz        
   247     -3.199662   6 C  pz              201      3.182545   5 C  pz        
   289     -2.279354   7 H  pz              381      2.275586  11 H  pz        
    60      2.258440   2 C  pz              244     -2.255177   6 C  pz        
   312      2.265352   8 H  pz              358     -2.261607  10 H  pz        
 
 Vector   67  Occ=0.000000D+00  E= 2.962792D-01
              MO Center= -6.5D-02,  9.6D-01,  4.1D-04, r^2= 1.4D+01
   Bfn.  Coefficient  Atom+Function         Bfn.  Coefficient  Atom+Function  
  ----- ------------  ---------------      ----- ------------  ---------------
     4     10.431075   1 C  s                59     -5.745323   2 C  py        
   243     -5.630508   6 C  py                5      5.523938   1 C  s         
   105     -5.539635   3 C  py              197     -5.132952   5 C  py        
    16      4.273570   1 C  py              371     -4.200348  11 H  s         
   279     -4.170241   7 H  s                13      3.912603   1 C  py        
 
 Vector   68  Occ=0.000000D+00  E= 3.080527D-01
              MO Center=  2.6D-02, -2.7D-01, -4.5D-04, r^2= 1.5D+01
   Bfn.  Coefficient  Atom+Function         Bfn.  Coefficient  Atom+Function  
  ----- ------------  ---------------      ----- ------------  ---------------
   155      5.181415   4 C  pz               14      4.365549   1 C  pz        
   109     -3.736148   3 C  pz              201     -3.750856   5 C  pz        
   335     -2.708967   9 H  pz               60     -2.048517   2 C  pz        
   244     -2.050652   6 C  pz              152      1.851434   4 C  pz        
    17      1.837642   1 C  pz               29     -1.720431   1 C  d -1      
 
 Vector   69  Occ=0.000000D+00  E= 3.150384D-01
              MO Center= -4.1D-03, -7.4D-02,  1.8D-05, r^2= 9.1D+00
   Bfn.  Coefficient  Atom+Function         Bfn.  Coefficient  Atom+Function  
  ----- ------------  ---------------      ----- ------------  ---------------
   261      1.252824   6 C  d  1             77      1.135151   2 C  d  1      
   169     -1.083769   4 C  d  1             75     -1.021193   2 C  d -1      
   259      0.875567   6 C  d -1            381      0.724380  11 H  pz        
   289     -0.719789   7 H  pz               31      0.634250   1 C  d  1      
    60     -0.346800   2 C  pz              244      0.325492   6 C  pz        
 
 Vector   70  Occ=0.000000D+00  E= 3.284635D-01
              MO Center=  4.8D-02, -6.2D-01,  6.9D-05, r^2= 1.5D+01
   Bfn.  Coefficient  Atom+Function         Bfn.  Coefficient  Atom+Function  
  ----- ------------  ---------------      ----- ------------  ---------------
   142     12.149805   4 C  s               188      8.760715   5 C  s         
    96      8.658971   3 C  s               151     -6.835701   4 C  py        
   325     -5.844474   9 H  s                 4     -5.229577   1 C  s         
   334     -5.005495   9 H  py                5      4.890880   1 C  s         
   302     -4.423129   8 H  s               348     -4.352823  10 H  s         
 
 Vector   71  Occ=0.000000D+00  E= 3.347353D-01
              MO Center= -2.5D-03,  2.5D-02,  1.9D-04, r^2= 7.7D+00
   Bfn.  Coefficient  Atom+Function         Bfn.  Coefficient  Atom+Function  
  ----- ------------  ---------------      ----- ------------  ---------------
   289      2.035075   7 H  pz              381      2.030691  11 H  pz        
   335      1.841621   9 H  pz               14     -1.758690   1 C  pz        
   155     -1.721418   4 C  pz               63     -1.566627   2 C  pz        
   247     -1.566392   6 C  pz               77     -1.513621   2 C  d  1      
   261      1.399469   6 C  d  1            106     -1.282958   3 C  pz        
 
 Vector   72  Occ=0.000000D+00  E= 3.433076D-01
              MO Center=  1.4D-02, -3.9D-01, -4.4D-03, r^2= 1.2D+01
   Bfn.  Coefficient  Atom+Function         Bfn.  Coefficient  Atom+Function  
  ----- ------------  ---------------      ----- ------------  ---------------
   169      3.298509   4 C  d  1             31      2.702383   1 C  d  1      
   312     -2.487089   8 H  pz              358      2.466306  10 H  pz        
   123      2.221944   3 C  d  1            215      2.103560   5 C  d  1      
   106     -1.820983   3 C  pz              198      1.773822   5 C  pz        
   289     -1.446291   7 H  pz              381      1.418926  11 H  pz        
 
 Vector   73  Occ=0.000000D+00  E= 3.449196D-01
              MO Center= -3.2D-02,  5.6D-01, -2.2D-03, r^2= 1.2D+01
   Bfn.  Coefficient  Atom+Function         Bfn.  Coefficient  Atom+Function  
  ----- ------------  ---------------      ----- ------------  ---------------
   143     23.697845   4 C  s               325    -13.020985   9 H  s         
   279     11.887410   7 H  s               371     11.945337  11 H  s         
    51    -11.773423   2 C  s               235    -11.736094   6 C  s         
     5     -7.707599   1 C  s               197     -6.906310   5 C  py        
   105     -6.806897   3 C  py              243     -6.019208   6 C  py        
 
 Vector   74  Occ=0.000000D+00  E= 3.478170D-01
              MO Center=  5.5D-03, -1.5D-01,  4.0D-03, r^2= 1.2D+01
   Bfn.  Coefficient  Atom+Function         Bfn.  Coefficient  Atom+Function  
  ----- ------------  ---------------      ----- ------------  ---------------
   235    -21.327890   6 C  s                51     21.024152   2 C  s         
   302    -11.973187   8 H  s               348     11.994113  10 H  s         
   189    -11.007889   5 C  s                97     10.891307   3 C  s         
   279     -9.823143   7 H  s               371      9.691966  11 H  s         
    12     -8.100837   1 C  px              150     -7.029365   4 C  px        
 
 Vector   75  Occ=0.000000D+00  E= 3.481551D-01
              MO Center=  4.2D-02, -5.3D-01,  3.2D-03, r^2= 1.3D+01
   Bfn.  Coefficient  Atom+Function         Bfn.  Coefficient  Atom+Function  
  ----- ------------  ---------------      ----- ------------  ---------------
   155     -3.941419   4 C  pz               17      3.750784   1 C  pz        
   109      3.529439   3 C  pz              201      3.536211   5 C  pz        
    63     -3.422400   2 C  pz              247     -3.420283   6 C  pz        
   152     -3.005142   4 C  pz              213     -2.330375   5 C  d -1      
   381      2.288253  11 H  pz              289      2.234341   7 H  pz        
 
 Vector   76  Occ=0.000000D+00  E= 3.527360D-01
              MO Center=  4.7D-02, -5.2D-01, -2.0D-04, r^2= 1.4D+01
   Bfn.  Coefficient  Atom+Function         Bfn.  Coefficient  Atom+Function  
  ----- ------------  ---------------      ----- ------------  ---------------
    17      6.408186   1 C  pz               63     -5.877767   2 C  pz        
   247     -5.870192   6 C  pz              109      5.146216   3 C  pz        
   201      5.137119   5 C  pz              155     -4.869797   4 C  pz        
   335      3.947784   9 H  pz               14      3.807033   1 C  pz        
   167      3.066351   4 C  d -1             60     -2.694794   2 C  pz        
 
 Vector   77  Occ=0.000000D+00  E= 3.546220D-01
              MO Center= -3.2D-02,  3.2D-01, -6.8D-04, r^2= 1.5D+01
   Bfn.  Coefficient  Atom+Function         Bfn.  Coefficient  Atom+Function  
  ----- ------------  ---------------      ----- ------------  ---------------
     5     31.350791   1 C  s                51    -16.118091   2 C  s         
   143     15.928301   4 C  s               235    -15.397759   6 C  s         
   151    -11.073540   4 C  py              196     -7.538073   5 C  px        
    50      7.440522   2 C  s                13      7.294102   1 C  py        
   234      7.327446   6 C  s               104      7.199189   3 C  px        
 
 Vector   78  Occ=0.000000D+00  E= 3.598915D-01
              MO Center= -5.3D-02,  7.5D-01,  2.4D-04, r^2= 1.3D+01
   Bfn.  Coefficient  Atom+Function         Bfn.  Coefficient  Atom+Function  
  ----- ------------  ---------------      ----- ------------  ---------------
   289      3.407508   7 H  pz              381     -3.403094  11 H  pz        
   244     -3.189566   6 C  pz               60      3.121619   2 C  pz        
    77     -3.068797   2 C  d  1            121     -3.077129   3 C  d -1      
   259      3.035202   6 C  d -1            213      2.795571   5 C  d -1      
   198      2.764432   5 C  pz              312     -2.775020   8 H  pz        
 
 Vector   79  Occ=0.000000D+00  E= 3.685256D-01
              MO Center=  7.1D-02, -5.7D-01, -1.7D-04, r^2= 1.3D+01
   Bfn.  Coefficient  Atom+Function         Bfn.  Coefficient  Atom+Function  
  ----- ------------  ---------------      ----- ------------  ---------------
   188     10.840057   5 C  s                96     10.607869   3 C  s         
   196      8.637072   5 C  px              104     -8.361388   3 C  px        
   142     -7.525418   4 C  s                 5      7.157187   1 C  s         
   212      5.531956   5 C  d -2            258      5.392372   6 C  d -2      
   120     -5.115186   3 C  d -2            242     -5.107952   6 C  px        
 
 Vector   80  Occ=0.000000D+00  E= 3.720861D-01
              MO Center= -2.4D-02, -3.1D-01, -2.1D-04, r^2= 1.3D+01
   Bfn.  Coefficient  Atom+Function         Bfn.  Coefficient  Atom+Function  
  ----- ------------  ---------------      ----- ------------  ---------------
   189      9.900852   5 C  s                97     -9.754254   3 C  s         
   234      9.085591   6 C  s                50     -8.944919   2 C  s         
   279      5.659934   7 H  s               371     -5.282269  11 H  s         
   311      5.250354   8 H  py              357     -5.120313  10 H  py        
   235     -5.042499   6 C  s               212      4.739689   5 C  d -2      
 
 Vector   81  Occ=0.000000D+00  E= 3.819130D-01
              MO Center=  3.8D-02, -5.7D-01, -4.5D-06, r^2= 1.6D+01
   Bfn.  Coefficient  Atom+Function         Bfn.  Coefficient  Atom+Function  
  ----- ------------  ---------------      ----- ------------  ---------------
   166      9.079342   4 C  d -2            333      7.117912   9 H  px        
   150     -6.659776   4 C  px              216     -6.542196   5 C  d  2      
   124      6.115483   3 C  d  2            279      5.997912   7 H  s         
   371     -5.744596  11 H  s               310      5.089430   8 H  px        
   356      5.015602  10 H  px               96     -4.900598   3 C  s         
 
 Vector   82  Occ=0.000000D+00  E= 3.932435D-01
              MO Center= -8.1D-03,  4.6D-01,  1.9D-04, r^2= 1.5D+01
   Bfn.  Coefficient  Atom+Function         Bfn.  Coefficient  Atom+Function  
  ----- ------------  ---------------      ----- ------------  ---------------
    12     12.180862   1 C  px               51    -11.263588   2 C  s         
   235     10.883205   6 C  s                78     -9.018473   2 C  d  2      
   262      8.823558   6 C  d  2             15     -6.836358   1 C  px        
   216      6.697593   5 C  d  2            153     -5.867489   4 C  px        
   379     -5.849238  11 H  px              124     -5.786307   3 C  d  2      
 
 Vector   83  Occ=0.000000D+00  E= 3.960482D-01
              MO Center= -5.2D-02,  8.3D-01,  2.4D-04, r^2= 1.2D+01
   Bfn.  Coefficient  Atom+Function         Bfn.  Coefficient  Atom+Function  
  ----- ------------  ---------------      ----- ------------  ---------------
   152     -7.532513   4 C  pz              106      7.347789   3 C  pz        
   198      7.330345   5 C  pz               60     -6.483709   2 C  pz        
   244     -6.477723   6 C  pz              167     -6.333377   4 C  d -1      
   215      5.108084   5 C  d  1            123     -4.724738   3 C  d  1      
    14      4.575540   1 C  pz              259      4.034256   6 C  d -1      
 
 Vector   84  Occ=0.000000D+00  E= 4.017356D-01
              MO Center= -2.3D-02,  5.2D-01, -7.4D-04, r^2= 1.5D+01
   Bfn.  Coefficient  Atom+Function         Bfn.  Coefficient  Atom+Function  
  ----- ------------  ---------------      ----- ------------  ---------------
     5     51.623397   1 C  s               235    -20.418909   6 C  s         
    51    -19.050025   2 C  s               189    -17.558731   5 C  s         
    97    -17.160968   3 C  s               143     11.606074   4 C  s         
   142    -10.280522   4 C  s                 4     -9.655710   1 C  s         
    50     -8.315334   2 C  s               325      7.877247   9 H  s         
 
 Vector   85  Occ=0.000000D+00  E= 4.052818D-01
              MO Center=  1.5D-02,  9.1D-02, -6.8D-05, r^2= 1.3D+01
   Bfn.  Coefficient  Atom+Function         Bfn.  Coefficient  Atom+Function  
  ----- ------------  ---------------      ----- ------------  ---------------
     5     33.873926   1 C  s               143     17.752434   4 C  s         
    51    -13.373071   2 C  s               235    -12.610284   6 C  s         
   188     10.174123   5 C  s                96      9.808229   3 C  s         
   189     -7.603861   5 C  s                97     -7.420434   3 C  s         
   262      7.070920   6 C  d  2             78      6.805843   2 C  d  2      
 
 Vector   86  Occ=0.000000D+00  E= 4.130710D-01
[...]
     Occ.   19 beta  a   ---  Virt.   24 beta  a   -0.21757 X
     Occ.   20 beta  a   ---  Virt.   22 beta  a    0.14244 X
  ----------------------------------------------------------------------------
  Root  27         a              0.251960567 a.u.                6.8562 eV 
  <S2> =   1.6623
  ----------------------------------------------------------------------------
     Transition Moments    X  0.00002   Y  0.00000   Z  0.24394
     Transition Moments   XX  0.00005  XY -0.00006  XZ  0.02447
     Transition Moments   YY  0.00013  YZ  0.16880  ZZ  0.00003
     Dipole Oscillator Strength                    0.0099954778
     Electric Quadrupole                           0.0000000025
     Magnetic Dipole                               0.0000000309
     Total Oscillator Strength                     0.0099955112
 
     Occ.   19 alpha a   ---  Virt.   26 alpha a    0.96759 X
     Occ.   19 alpha a   ---  Virt.   35 alpha a   -0.07012 X
     Occ.   19 alpha a   ---  Virt.   36 alpha a   -0.07261 X
     Occ.   20 alpha a   ---  Virt.   25 alpha a    0.11743 X
     Occ.   20 alpha a   ---  Virt.   26 alpha a   -0.16721 X
     Occ.   20 beta  a   ---  Virt.   26 beta  a    0.05056 X
  ----------------------------------------------------------------------------
  Root  28         a              0.252675935 a.u.                6.8757 eV 
  <S2> =   1.8932
  ----------------------------------------------------------------------------
     Transition Moments    X -0.00003   Y -0.00001   Z  0.01856
     Transition Moments   XX -0.00000  XY  0.00002  XZ -0.39177
     Transition Moments   YY -0.00006  YZ -0.01122  ZZ -0.00002
     Dipole Oscillator Strength                    0.0000580028
     Electric Quadrupole                           0.0000000132
     Magnetic Dipole                               0.0000000097
     Total Oscillator Strength                     0.0000580257
 
     Occ.   19 alpha a   ---  Virt.   25 alpha a    0.24387 X
     Occ.   19 alpha a   ---  Virt.   26 alpha a    0.16700 X
     Occ.   20 alpha a   ---  Virt.   26 alpha a    0.94632 X
     Occ.   20 alpha a   ---  Virt.   35 alpha a   -0.06057 X
     Occ.   20 alpha a   ---  Virt.   36 alpha a   -0.06451 X
     Occ.   19 beta  a   ---  Virt.   26 beta  a   -0.06746 X
  ----------------------------------------------------------------------------
  Root  29         a              0.253992378 a.u.                6.9115 eV 
  <S2> =   1.6127
  ----------------------------------------------------------------------------
     Transition Moments    X  0.00006   Y -0.00002   Z  0.00100
     Transition Moments   XX -0.00003  XY  0.00004  XZ -0.49453
     Transition Moments   YY -0.00011  YZ -0.03108  ZZ -0.00003
     Dipole Oscillator Strength                    0.0000001696
     Electric Quadrupole                           0.0000000214
     Magnetic Dipole                               0.0000000110
     Total Oscillator Strength                     0.0000002020
 
     Occ.   20 alpha a   ---  Virt.   26 alpha a    0.07149 X
     Occ.   19 beta  a   ---  Virt.   26 beta  a    0.98505 X
     Occ.   19 beta  a   ---  Virt.   35 beta  a   -0.05776 X
     Occ.   19 beta  a   ---  Virt.   36 beta  a   -0.07397 X
     Occ.   20 beta  a   ---  Virt.   25 beta  a    0.09659 X
  ----------------------------------------------------------------------------
  Root  30         a              0.254729333 a.u.                6.9315 eV 
  <S2> =   0.7699
  ----------------------------------------------------------------------------
     Transition Moments    X  1.50638   Y  0.08916   Z -0.00002
     Transition Moments   XX  0.02026  XY -0.18510  XZ  0.00004
     Transition Moments   YY -0.03784  YZ -0.00002  ZZ -0.00124
     Dipole Oscillator Strength                    0.3867025639
     Electric Quadrupole                           0.0000000031
     Magnetic Dipole                               0.0000000176
     Total Oscillator Strength                     0.3867025846
 
     Occ.   19 alpha a   ---  Virt.   22 alpha a    0.37932 X
     Occ.   19 alpha a   ---  Virt.   22 alpha a   -0.05303 Y
     Occ.   20 alpha a   ---  Virt.   23 alpha a   -0.42632 X
     Occ.   20 alpha a   ---  Virt.   23 alpha a    0.05096 Y
     Occ.   20 alpha a   ---  Virt.   29 alpha a    0.14004 X
     Occ.   21 alpha a   ---  Virt.   25 alpha a   -0.07579 X
     Occ.   21 alpha a   ---  Virt.   27 alpha a    0.38395 X
     Occ.   13 beta  a   ---  Virt.   21 beta  a   -0.12831 X
     Occ.   15 beta  a   ---  Virt.   21 beta  a   -0.27173 X
     Occ.   19 beta  a   ---  Virt.   24 beta  a   -0.49956 X
     Occ.   19 beta  a   ---  Virt.   29 beta  a    0.13935 X
     Occ.   20 beta  a   ---  Virt.   22 beta  a    0.34937 X
     Occ.   20 beta  a   ---  Virt.   22 beta  a   -0.05625 Y
  ----------------------------------------------------------------------------
  Root  31         a              0.255322753 a.u.                6.9477 eV 
  <S2> =   0.8003
  ----------------------------------------------------------------------------
     Transition Moments    X -0.03247   Y  0.63622   Z  0.00000
     Transition Moments   XX  0.65215  XY -0.08118  XZ -0.00002
     Transition Moments   YY  1.88654  YZ  0.00003  ZZ  0.14716
     Dipole Oscillator Strength                    0.0690781095
     Electric Quadrupole                           0.0000000716
     Magnetic Dipole                               0.0000000000
     Total Oscillator Strength                     0.0690781811
 
     Occ.   19 alpha a   ---  Virt.   23 alpha a   -0.10500 X
     Occ.   20 alpha a   ---  Virt.   22 alpha a   -0.11437 X
     Occ.   21 alpha a   ---  Virt.   26 alpha a   -0.18446 X
     Occ.   21 alpha a   ---  Virt.   28 alpha a    0.91014 X
     Occ.   21 alpha a   ---  Virt.   30 alpha a    0.12835 X
     Occ.   21 alpha a   ---  Virt.   31 alpha a    0.16292 X
     Occ.   21 alpha a   ---  Virt.   48 alpha a   -0.05655 X
     Occ.   16 beta  a   ---  Virt.   21 beta  a   -0.18745 X
     Occ.   19 beta  a   ---  Virt.   22 beta  a   -0.10941 X
     Occ.   20 beta  a   ---  Virt.   24 beta  a   -0.09605 X
  ----------------------------------------------------------------------------
  Root  32         a              0.260670960 a.u.                7.0932 eV 
  <S2> =   0.7993
  ----------------------------------------------------------------------------
     Transition Moments    X -0.00001   Y  0.00001   Z -0.09569
     Transition Moments   XX  0.00001  XY  0.00001  XZ  0.04374
     Transition Moments   YY  0.00003  YZ -0.70600  ZZ -0.00000
     Dipole Oscillator Strength                    0.0015913552
     Electric Quadrupole                           0.0000000472
     Magnetic Dipole                               0.0000000334
     Total Oscillator Strength                     0.0015914358
 
     Occ.   21 alpha a   ---  Virt.   29 alpha a    0.97946 X
     Occ.   21 alpha a   ---  Virt.   33 alpha a    0.18003 X
  ----------------------------------------------------------------------------
  Root  33         a              0.265421748 a.u.                7.2225 eV 
  <S2> =   1.7806
  ----------------------------------------------------------------------------
     Transition Moments    X -0.00001   Y -0.00001   Z  0.00056
     Transition Moments   XX  0.00006  XY -0.00002  XZ -0.54558
     Transition Moments   YY  0.00003  YZ -0.04174  ZZ  0.00004
     Dipole Oscillator Strength                    0.0000000548
     Electric Quadrupole                           0.0000000298
     Magnetic Dipole                               0.0000000005
     Total Oscillator Strength                     0.0000000852
 
     Occ.   20 beta  a   ---  Virt.   27 beta  a   -0.99107 X
     Occ.   20 beta  a   ---  Virt.   38 beta  a    0.09649 X
  ----------------------------------------------------------------------------
  Root  34         a              0.267150187 a.u.                7.2695 eV 
  <S2> =   0.8199
  ----------------------------------------------------------------------------
     Transition Moments    X -0.07498   Y  1.19868   Z -0.00000
     Transition Moments   XX -0.01154  XY  0.04431  XZ -0.00001
     Transition Moments   YY -0.69794  YZ -0.00006  ZZ -0.04405
     Dipole Oscillator Strength                    0.2569024885
     Electric Quadrupole                           0.0000000154
     Magnetic Dipole                               0.0000000000
     Total Oscillator Strength                     0.2569025040
 
     Occ.   17 alpha a   ---  Virt.   23 alpha a    0.08502 X
     Occ.   19 alpha a   ---  Virt.   23 alpha a   -0.30361 X
     Occ.   19 alpha a   ---  Virt.   29 alpha a   -0.16043 X
     Occ.   20 alpha a   ---  Virt.   22 alpha a   -0.22200 X
     Occ.   21 alpha a   ---  Virt.   28 alpha a   -0.30020 X
     Occ.   21 alpha a   ---  Virt.   30 alpha a    0.43314 X
     Occ.   21 alpha a   ---  Virt.   31 alpha a   -0.08103 X
     Occ.   14 beta  a   ---  Virt.   21 beta  a    0.08770 X
     Occ.   16 beta  a   ---  Virt.   21 beta  a   -0.50002 X
     Occ.   19 beta  a   ---  Virt.   22 beta  a   -0.22360 X
     Occ.   20 beta  a   ---  Virt.   24 beta  a   -0.30705 X
     Occ.   20 beta  a   ---  Virt.   29 beta  a   -0.34121 X
  ----------------------------------------------------------------------------
  Root  35         a              0.270844847 a.u.                7.3701 eV 
  <S2> =   2.7164
  ----------------------------------------------------------------------------
     Transition Moments    X  0.00001   Y  0.00001   Z  0.00925
     Transition Moments   XX -0.00001  XY  0.00001  XZ  0.01041
     Transition Moments   YY -0.00002  YZ  0.13476  ZZ  0.00000
     Dipole Oscillator Strength                    0.0000154456
     Electric Quadrupole                           0.0000000019
     Magnetic Dipole                               0.0000000000
     Total Oscillator Strength                     0.0000154476
 
     Occ.   20 alpha a   ---  Virt.   27 alpha a   -0.78212 X
     Occ.   20 alpha a   ---  Virt.   38 alpha a    0.08664 X
     Occ.   19 beta  a   ---  Virt.   27 beta  a    0.59513 X
     Occ.   19 beta  a   ---  Virt.   38 beta  a   -0.06988 X
     Occ.   20 beta  a   ---  Virt.   28 beta  a    0.05509 X
     Occ.   20 beta  a   ---  Virt.   30 beta  a    0.06192 X
  ----------------------------------------------------------------------------
  Root  36         a              0.271248938 a.u.                7.3811 eV 
  <S2> =   2.7412
  ----------------------------------------------------------------------------
     Transition Moments    X  0.04793   Y  0.00665   Z -0.00000
     Transition Moments   XX -0.00499  XY -0.02891  XZ  0.00001
     Transition Moments   YY  0.00242  YZ -0.00003  ZZ -0.00209
     Dipole Oscillator Strength                    0.0004233919
     Electric Quadrupole                           0.0000000001
     Magnetic Dipole                               0.0000000018
     Total Oscillator Strength                     0.0004233938
 
     Occ.   17 alpha a   ---  Virt.   22 alpha a    0.59836 X
     Occ.   17 alpha a   ---  Virt.   41 alpha a   -0.05241 X
     Occ.   19 alpha a   ---  Virt.   32 alpha a   -0.08343 X
     Occ.   20 alpha a   ---  Virt.   29 alpha a    0.16023 X
     Occ.   20 alpha a   ---  Virt.   44 alpha a   -0.22668 X
     Occ.   20 alpha a   ---  Virt.   47 alpha a    0.17341 X
     Occ.   17 beta  a   ---  Virt.   22 beta  a   -0.64456 X
     Occ.   17 beta  a   ---  Virt.   41 beta  a    0.05433 X
     Occ.   19 beta  a   ---  Virt.   29 beta  a   -0.10418 X
     Occ.   19 beta  a   ---  Virt.   44 beta  a    0.20074 X
     Occ.   19 beta  a   ---  Virt.   47 beta  a   -0.16675 X
     Occ.   20 beta  a   ---  Virt.   31 beta  a    0.10180 X
  ----------------------------------------------------------------------------
  Root  37         a              0.271693531 a.u.                7.3932 eV 
  <S2> =   1.0353
  ----------------------------------------------------------------------------
     Transition Moments    X  0.03278   Y -0.52922   Z  0.00000
     Transition Moments   XX  1.06434  XY  0.11448  XZ -0.00001
     Transition Moments   YY -0.75962  YZ  0.00002  ZZ  0.24133
     Dipole Oscillator Strength                    0.0509237575
     Electric Quadrupole                           0.0000000905
     Magnetic Dipole                               0.0000000000
     Total Oscillator Strength                     0.0509238480
 
     Occ.   17 alpha a   ---  Virt.   23 alpha a   -0.06372 X
     Occ.   19 alpha a   ---  Virt.   23 alpha a    0.09598 X
     Occ.   21 alpha a   ---  Virt.   30 alpha a    0.79933 X
     Occ.   21 alpha a   ---  Virt.   31 alpha a   -0.20706 X
     Occ.   21 alpha a   ---  Virt.   35 alpha a    0.07542 X
     Occ.   21 alpha a   ---  Virt.   40 alpha a   -0.05690 X
     Occ.   14 beta  a   ---  Virt.   21 beta  a   -0.06500 X
     Occ.   16 beta  a   ---  Virt.   21 beta  a    0.19599 X
     Occ.   19 beta  a   ---  Virt.   22 beta  a    0.06208 X
     Occ.   20 beta  a   ---  Virt.   24 beta  a    0.10104 X
     Occ.   20 beta  a   ---  Virt.   29 beta  a    0.47414 X
  ----------------------------------------------------------------------------
  Root  38         a              0.271829137 a.u.                7.3969 eV 
  <S2> =   0.8221
  ----------------------------------------------------------------------------
     Transition Moments    X -0.00001   Y  0.00003   Z -0.02494
     Transition Moments   XX -0.00006  XY -0.00007  XZ  0.01482
     Transition Moments   YY  0.00011  YZ -0.87554  ZZ -0.00003
     Dipole Oscillator Strength                    0.0001127189
     Electric Quadrupole                           0.0000000820
     Magnetic Dipole                               0.0000000038
     Total Oscillator Strength                     0.0001128047
 
     Occ.   20 alpha a   ---  Virt.   27 alpha a    0.59284 X
     Occ.   20 alpha a   ---  Virt.   38 alpha a   -0.05090 X
     Occ.   19 beta  a   ---  Virt.   27 beta  a    0.78638 X
     Occ.   19 beta  a   ---  Virt.   38 beta  a   -0.07343 X
     Occ.   20 beta  a   ---  Virt.   28 beta  a   -0.12789 X
  ----------------------------------------------------------------------------
  Root  39         a              0.272283430 a.u.                7.4092 eV 
  <S2> =   1.7205
  ----------------------------------------------------------------------------
     Transition Moments    X -0.00001   Y  0.00000   Z  0.00336
     Transition Moments   XX  0.00006  XY -0.00002  XZ -0.55147
     Transition Moments   YY  0.00001  YZ  0.03640  ZZ  0.00003
     Dipole Oscillator Strength                    0.0000020504
     Electric Quadrupole                           0.0000000328
     Magnetic Dipole                               0.0000000013
     Total Oscillator Strength                     0.0000020846
 
     Occ.   19 alpha a   ---  Virt.   27 alpha a   -0.98892 X
     Occ.   19 alpha a   ---  Virt.   38 alpha a    0.09574 X
  ----------------------------------------------------------------------------
  Root  40         a              0.272521959 a.u.                7.4157 eV 
  <S2> =   1.9629
  ----------------------------------------------------------------------------
     Transition Moments    X -0.00001   Y  0.00004   Z  0.04145
     Transition Moments   XX  0.00002  XY  0.00002  XZ -0.02191
     Transition Moments   YY  0.00006  YZ  0.43994  ZZ  0.00001
     Dipole Oscillator Strength                    0.0003121777
     Electric Quadrupole                           0.0000000209
     Magnetic Dipole                               0.0000000054
     Total Oscillator Strength                     0.0003122040
 
     Occ.   19 alpha a   ---  Virt.   28 alpha a   -0.11686 X
     Occ.   20 alpha a   ---  Virt.   27 alpha a    0.12848 X
     Occ.   17 beta  a   ---  Virt.   21 beta  a   -0.05489 X
     Occ.   19 beta  a   ---  Virt.   27 beta  a    0.06468 X
     Occ.   20 beta  a   ---  Virt.   28 beta  a    0.96907 X
     Occ.   20 beta  a   ---  Virt.   30 beta  a    0.05601 X
     Occ.   20 beta  a   ---  Virt.   32 beta  a    0.07474 X
     Occ.   20 beta  a   ---  Virt.   43 beta  a    0.08092 X
 
              Target root =      1
          Target symmetry = none
      Ground state energy =   -231.646319077765
        Excitation energy =      0.106130137947
     Excited state energy =   -231.540188939817
 
  stored tddft:energy   -231.540188939817     

 Task  times  cpu:     2662.5s     wall:     2759.6s
 
 
                                NWChem Input Module
                                -------------------
 
 
 Summary of allocated global arrays
-----------------------------------
  No active global arrays



                         GA Statistics for process    0
                         ------------------------------

       create   destroy   get      put      acc     scatter   gather  read&inc
calls: 9544     9544     9.92e+06 4.29e+06 2.60e+06 5660        0      250     
number of processes/call 1.32e+00 1.71e+00 1.92e+00 0.00e+00 0.00e+00
bytes total:             8.64e+10 1.16e+10 9.85e+10 6.26e+04 0.00e+00 2.00e+03
bytes remote:            6.26e+10 1.09e+09 9.40e+10 0.00e+00 0.00e+00 0.00e+00
Max memory consumed for GA by this process: 205086464 bytes
 
MA_summarize_allocated_blocks: starting scan ...
MA_summarize_allocated_blocks: scan completed: 0 heap blocks, 0 stack blocks
MA usage statistics:

	allocation statistics:
					      heap	     stack
					      ----	     -----
	current number of blocks	         0	         0
	maximum number of blocks	        20	        52
	current total bytes		         0	         0
	maximum total bytes		   1166016	  68276392
	maximum total K-bytes		      1167	     68277
	maximum total M-bytes		         2	        69
 
 
                                     CITATION
                                     --------
                Please cite the following reference when publishing
                           results obtained with NWChem:
 
                 M. Valiev, E.J. Bylaska, N. Govind, K. Kowalski,
              T.P. Straatsma, H.J.J. van Dam, D. Wang, J. Nieplocha,
                        E. Apra, T.L. Windus, W.A. de Jong
                 "NWChem: a comprehensive and scalable open-source
                  solution for large scale molecular simulations"
                      Comput. Phys. Commun. 181, 1477 (2010)
                           doi:10.1016/j.cpc.2010.04.018
 
                                      AUTHORS
                                      -------
          E. Apra, E. J. Bylaska, W. A. de Jong, N. Govind, K. Kowalski,
       T. P. Straatsma, M. Valiev, H. J. J. van Dam, D. Wang, T. L. Windus,
        J. Hammond, J. Autschbach, K. Bhaskaran-Nair, J. Brabec, K. Lopata,
    S. A. Fischer, S. Krishnamoorthy, M. Jacquelin, W. Ma, M. Klemm, O. Villa,
      Y. Chen, V. Anisimov, F. Aquino, S. Hirata, M. T. Hackler, V. Konjkov,
            D. Mejia-Rodriguez, T. Risthaus, M. Malagoli, A. Marenich,
   A. Otero-de-la-Roza, J. Mullin, P. Nichols, R. Peverati, J. Pittner, Y. Zhao,
        P.-D. Fan, A. Fonari, M. J. Williamson, R. J. Harrison, J. R. Rehr,
      M. Dupuis, D. Silverstein, D. M. A. Smith, J. Nieplocha, V. Tipparaju,
    M. Krishnan, B. E. Van Kuiken, A. Vazquez-Mayagoitia, L. Jensen, M. Swart,
      Q. Wu, T. Van Voorhis, A. A. Auer, M. Nooijen, L. D. Crosby, E. Brown,
      G. Cisneros, G. I. Fann, H. Fruchtl, J. Garza, K. Hirao, R. A. Kendall,
      J. A. Nichols, K. Tsemekhman, K. Wolinski, J. Anchell, D. E. Bernholdt,
      P. Borowski, T. Clark, D. Clerc, H. Dachsel, M. J. O. Deegan, K. Dyall,
    D. Elwood, E. Glendening, M. Gutowski, A. C. Hess, J. Jaffe, B. G. Johnson,
     J. Ju, R. Kobayashi, R. Kutteh, Z. Lin, R. Littlefield, X. Long, B. Meng,
      T. Nakajima, S. Niu, L. Pollack, M. Rosing, K. Glaesemann, G. Sandrone,
      M. Stave, H. Taylor, G. Thomas, J. H. van Lenthe, A. T. Wong, Z. Zhang.

 Total times  cpu:     2662.5s     wall:     2760.8s
