 argument  1 = /storage/home/j/jbb5516/normalModes/mode992.29-p.nw
 


============================== echo of input deck ==============================
echo
start

title "None"

geometry
C    -0.08760294    1.39037841    0.00000005
C    -1.26665065    0.69040330   -0.00000002
C    -1.16863241   -0.70568780   -0.00000002
C     0.08281449   -1.31437839    0.00000004
C     1.24796484   -0.55342654   -0.00000001
C     1.16997754    0.84392678    0.00000005
H    -2.23149139    1.17964279   -0.00000010
H    -2.06820717   -1.30786539   -0.00000009
H     0.15082350   -2.39377660    0.00000000
H     2.21600811   -1.03793165   -0.00000013
H     2.06578139    1.45039911   -0.00000010
symmetry c1
end

basis spherical
 * library "aug-cc-pvtz"
end

dft
 direct
 mult 2
 iterations 500
 xc b3lyp
end

tddft
 nroots 40
 notriplet
 algorithm 1
end
task tddft energy
================================================================================


                                         
                                         
 
 
              Northwest Computational Chemistry Package (NWChem) 6.8
              ------------------------------------------------------
 
 
                    Environmental Molecular Sciences Laboratory
                       Pacific Northwest National Laboratory
                                Richland, WA 99352
 
                              Copyright (c) 1994-2017
                       Pacific Northwest National Laboratory
                            Battelle Memorial Institute
 
             NWChem is an open-source computational chemistry package
                        distributed under the terms of the
                      Educational Community License (ECL) 2.0
             A copy of the license is included with this distribution
                              in the LICENSE.TXT file
 
                                  ACKNOWLEDGMENT
                                  --------------

            This software and its documentation were developed at the
            EMSL at Pacific Northwest National Laboratory, a multiprogram
            national laboratory, operated for the U.S. Department of Energy
            by Battelle under Contract Number DE-AC05-76RL01830. Support
            for this work was provided by the Department of Energy Office
            of Biological and Environmental Research, Office of Basic
            Energy Sciences, and the Office of Advanced Scientific Computing.


           Job information
           ---------------

    hostname        = comp-sc-0028.acib.production.int.aci.ics.psu.edu
    program         = /gpfs/group/lxj18/default/jeffprograms/nwchem-6.8.1/bin/LINUX64/nwchem
    date            = Sun Sep 20 21:34:47 2020

    compiled        = Wed_Oct_03_14:08:39_2018
    source          = /gpfs/group/lxj18/default/jeffprograms/nwchem-6.8.1
    nwchem branch   = 6.8.1
    nwchem revision = v6.8-143-gdb0d964
    ga revision     = 5.6.5
    use scalapack   = F
    input           = /storage/home/j/jbb5516/normalModes/mode992.29-p.nw
    prefix          = mode992.29-p.
    data base       = ./mode992.29-p.db
    status          = startup
    nproc           =       20
    time left       =     -1s



           Memory information
           ------------------

    heap     =   13107200 doubles =    100.0 Mbytes
    stack    =   13107197 doubles =    100.0 Mbytes
    global   =   26214400 doubles =    200.0 Mbytes (distinct from heap & stack)
    total    =   52428797 doubles =    400.0 Mbytes
    verify   = yes
    hardfail = no 


           Directory information
           ---------------------
 
  0 permanent = .
  0 scratch   = .
 
 
 
 
                                NWChem Input Module
                                -------------------
 
 
                                       None
                                       ----

 Scaling coordinates for geometry "geometry" by  1.889725989
 (inverse scale =  0.529177249)

 Turning off AUTOSYM since
 SYMMETRY directive was detected!
 

          ------
          auto-z
          ------
 
 
                             Geometry "geometry" -> ""
                             -------------------------
 
 Output coordinates in angstroms (scale by  1.889725989 to convert to a.u.)
 
  No.       Tag          Charge          X              Y              Z
 ---- ---------------- ---------- -------------- -------------- --------------
    1 C                    6.0000    -0.08760635     1.39043298     0.00000005
    2 C                    6.0000    -1.26665406     0.69045787    -0.00000002
    3 C                    6.0000    -1.16863582    -0.70563323    -0.00000002
    4 C                    6.0000     0.08281108    -1.31432382     0.00000004
    5 C                    6.0000     1.24796143    -0.55337197    -0.00000001
    6 C                    6.0000     1.16997413     0.84398135     0.00000005
    7 H                    1.0000    -2.23149480     1.17969736    -0.00000010
    8 H                    1.0000    -2.06821058    -1.30781082    -0.00000009
    9 H                    1.0000     0.15082009    -2.39372203    -0.00000000
   10 H                    1.0000     2.21600470    -1.03787708    -0.00000013
   11 H                    1.0000     2.06577798     1.45045368    -0.00000010
 
      Atomic Mass 
      ----------- 
 
      C                 12.000000
      H                  1.007825
 

 Effective nuclear repulsion energy (a.u.)     195.0326736769

            Nuclear Dipole moment (a.u.) 
            ----------------------------
        X                 Y               Z
 ---------------- ---------------- ----------------
     0.0000000000     0.0000000000     0.0000000000
 


                                Z-matrix (autoz)
                                -------- 

 Units are Angstrom for bonds and degrees for angles
 
      Type          Name      I     J     K     L     M      Value
      ----------- --------  ----- ----- ----- ----- ----- ----------
    1 Stretch                  1     2                       1.37117
    2 Stretch                  1     6                       1.37117
    3 Stretch                  2     3                       1.39953
    4 Stretch                  2     7                       1.08179
    5 Stretch                  3     4                       1.39163
    6 Stretch                  3     8                       1.08252
    7 Stretch                  4     5                       1.39163
    8 Stretch                  4     9                       1.08154
    9 Stretch                  5     6                       1.39953
   10 Stretch                  5    10                       1.08252
   11 Stretch                  6    11                       1.08179
   12 Bend                     1     2     3               116.68060
   13 Bend                     1     2     7               122.41522
   14 Bend                     1     6     5               116.68061
   15 Bend                     1     6    11               122.41522
   16 Bend                     2     1     6               125.81710
   17 Bend                     2     3     4               119.95389
   18 Bend                     2     3     8               119.78236
   19 Bend                     3     2     7               120.90418
   20 Bend                     3     4     5               120.91392
   21 Bend                     3     4     9               119.54304
   22 Bend                     4     3     8               120.26375
   23 Bend                     4     5     6               119.95388
   24 Bend                     4     5    10               120.26378
   25 Bend                     5     4     9               119.54305
   26 Bend                     5     6    11               120.90417
   27 Bend                     6     5    10               119.78234
   28 Torsion                  1     2     3     4           0.00000
   29 Torsion                  1     2     3     8        -180.00000
   30 Torsion                  1     6     5     4           0.00000
   31 Torsion                  1     6     5    10         180.00000
   32 Torsion                  2     1     6     5           0.00000
   33 Torsion                  2     1     6    11         180.00000
   34 Torsion                  2     3     4     5           0.00000
   35 Torsion                  2     3     4     9        -180.00000
   36 Torsion                  3     2     1     6           0.00000
   37 Torsion                  3     4     5     6           0.00000
   38 Torsion                  3     4     5    10        -180.00000
   39 Torsion                  4     3     2     7         180.00000
   40 Torsion                  4     5     6    11        -180.00000
   41 Torsion                  5     4     3     8         180.00000
   42 Torsion                  6     1     2     7        -180.00000
   43 Torsion                  6     5     4     9        -180.00000
   44 Torsion                  7     2     3     8           0.00000
   45 Torsion                  8     3     4     9           0.00000
   46 Torsion                  9     4     5    10           0.00000
   47 Torsion                 10     5     6    11           0.00000
 
 
            XYZ format geometry
            -------------------
    11
 geometry
 C                    -0.08760635     1.39043298     0.00000005
 C                    -1.26665406     0.69045787    -0.00000002
 C                    -1.16863582    -0.70563323    -0.00000002
 C                     0.08281108    -1.31432382     0.00000004
 C                     1.24796143    -0.55337197    -0.00000001
 C                     1.16997413     0.84398135     0.00000005
 H                    -2.23149480     1.17969736    -0.00000010
 H                    -2.06821058    -1.30781082    -0.00000009
 H                     0.15082009    -2.39372203    -0.00000000
 H                     2.21600470    -1.03787708    -0.00000013
 H                     2.06577798     1.45045368    -0.00000010
 
 ==============================================================================
                                internuclear distances
 ------------------------------------------------------------------------------
       center one      |      center two      | atomic units |  angstroms
 ------------------------------------------------------------------------------
    2 C                |   1 C                |     2.59114  |     1.37117
    3 C                |   2 C                |     2.64472  |     1.39953
    4 C                |   3 C                |     2.62979  |     1.39163
    5 C                |   4 C                |     2.62979  |     1.39163
    6 C                |   1 C                |     2.59114  |     1.37117
    6 C                |   5 C                |     2.64472  |     1.39953
    7 H                |   2 C                |     2.04429  |     1.08179
    8 H                |   3 C                |     2.04567  |     1.08252
    9 H                |   4 C                |     2.04381  |     1.08154
   10 H                |   5 C                |     2.04567  |     1.08252
   11 H                |   6 C                |     2.04429  |     1.08179
 ------------------------------------------------------------------------------
                         number of included internuclear distances:         11
 ==============================================================================



 ==============================================================================
                                 internuclear angles
 ------------------------------------------------------------------------------
        center 1       |       center 2       |       center 3       |  degrees
 ------------------------------------------------------------------------------
    2 C                |   1 C                |   6 C                |   125.82
    1 C                |   2 C                |   3 C                |   116.68
    1 C                |   2 C                |   7 H                |   122.42
    3 C                |   2 C                |   7 H                |   120.90
    2 C                |   3 C                |   4 C                |   119.95
    2 C                |   3 C                |   8 H                |   119.78
    4 C                |   3 C                |   8 H                |   120.26
    3 C                |   4 C                |   5 C                |   120.91
    3 C                |   4 C                |   9 H                |   119.54
    5 C                |   4 C                |   9 H                |   119.54
    4 C                |   5 C                |   6 C                |   119.95
    4 C                |   5 C                |  10 H                |   120.26
    6 C                |   5 C                |  10 H                |   119.78
    1 C                |   6 C                |   5 C                |   116.68
    1 C                |   6 C                |  11 H                |   122.42
    5 C                |   6 C                |  11 H                |   120.90
 ------------------------------------------------------------------------------
                            number of included internuclear angles:         16
 ==============================================================================





 Summary of "ao basis" -> "" (spherical)
 ------------------------------------------------------------------------------
       Tag                 Description            Shells   Functions and Types
 ---------------- ------------------------------  ------  ---------------------
 *                        aug-cc-pvtz                 on all atoms 


 
                                 NWChem DFT Module
                                 -----------------
 
 
                                       None
 
 
                      Basis "ao basis" -> "ao basis" (spherical)
                      -----
  C (Carbon)
  ----------
            Exponent  Coefficients 
       -------------- ---------------------------------------------------------
  1 S  8.23600000E+03  0.000531
  1 S  1.23500000E+03  0.004108
  1 S  2.80800000E+02  0.021087
  1 S  7.92700000E+01  0.081853
  1 S  2.55900000E+01  0.234817
  1 S  8.99700000E+00  0.434401
  1 S  3.31900000E+00  0.346129
  1 S  3.64300000E-01 -0.008983
 
  2 S  8.23600000E+03 -0.000113
  2 S  1.23500000E+03 -0.000878
  2 S  2.80800000E+02 -0.004540
  2 S  7.92700000E+01 -0.018133
  2 S  2.55900000E+01 -0.055760
  2 S  8.99700000E+00 -0.126895
  2 S  3.31900000E+00 -0.170352
  2 S  3.64300000E-01  0.598684
 
  3 S  9.05900000E-01  1.000000
 
  4 S  1.28500000E-01  1.000000
 
  5 S  4.40200000E-02  1.000000
 
  6 P  1.87100000E+01  0.014031
  6 P  4.13300000E+00  0.086866
  6 P  1.20000000E+00  0.290216
 
  7 P  3.82700000E-01  1.000000
 
  8 P  1.20900000E-01  1.000000
 
  9 P  3.56900000E-02  1.000000
 
 10 D  1.09700000E+00  1.000000
 
 11 D  3.18000000E-01  1.000000
 
 12 D  1.00000000E-01  1.000000
 
 13 F  7.61000000E-01  1.000000
 
 14 F  2.68000000E-01  1.000000
 
  H (Hydrogen)
  ------------
            Exponent  Coefficients 
       -------------- ---------------------------------------------------------
  1 S  3.38700000E+01  0.006068
  1 S  5.09500000E+00  0.045308
  1 S  1.15900000E+00  0.202822
 
  2 S  3.25800000E-01  1.000000
 
  3 S  1.02700000E-01  1.000000
 
  4 S  2.52600000E-02  1.000000
 
  5 P  1.40700000E+00  1.000000
 
  6 P  3.88000000E-01  1.000000
 
  7 P  1.02000000E-01  1.000000
 
  8 D  1.05700000E+00  1.000000
 
  9 D  2.47000000E-01  1.000000
 


 Summary of "ao basis" -> "ao basis" (spherical)
 ------------------------------------------------------------------------------
       Tag                 Description            Shells   Functions and Types
 ---------------- ------------------------------  ------  ---------------------
 C                        aug-cc-pvtz               14       46   5s4p3d2f
 H                        aug-cc-pvtz                9       23   4s3p2d




 Summary of "ao basis" -> "ao basis" (spherical)
 ------------------------------------------------------------------------------
       Tag                 Description            Shells   Functions and Types
 ---------------- ------------------------------  ------  ---------------------
 C                        aug-cc-pvtz               14       46   5s4p3d2f
 H                        aug-cc-pvtz                9       23   4s3p2d


  Caching 1-el integrals 
 
            General Information
            -------------------
          SCF calculation type: DFT
          Wavefunction type:  spin polarized.
          No. of atoms     :    11
          No. of electrons :    41
           Alpha electrons :    21
            Beta electrons :    20
          Charge           :     0
          Spin multiplicity:     2
          Use of symmetry is: off; symmetry adaption is: off
          Maximum number of iterations: 500
          This is a Direct SCF calculation.
          AO basis - number of functions:   391
                     number of shells:   129
          Convergence on energy requested:  1.00D-06
          Convergence on density requested:  1.00D-05
          Convergence on gradient requested:  5.00D-04
 
              XC Information
              --------------
                         B3LYP Method XC Potential
                     Hartree-Fock (Exact) Exchange  0.200          
                        Slater Exchange Functional  0.800 local    
                    Becke 1988 Exchange Functional  0.720 non-local
              Lee-Yang-Parr Correlation Functional  0.810          
                  VWN I RPA Correlation Functional  0.190 local    
 
             Grid Information
             ----------------
          Grid used for XC integration:  medium    
          Radial quadrature: Mura-Knowles        
          Angular quadrature: Lebedev. 
          Tag              B.-S. Rad. Rad. Pts. Rad. Cut. Ang. Pts.
          ---              ---------- --------- --------- ---------
          C                   0.70       49          15.0       434
          H                   0.35       45          17.0       434
          Grid pruning is: on 
          Number of quadrature shells:   519
          Spatial weights used:  Erf1
 
          Convergence Information
          -----------------------
          Convergence aids based upon iterative change in 
          total energy or number of iterations. 
          Levelshifting, if invoked, occurs when the 
          HOMO/LUMO gap drops below (HL_TOL):  1.00D-02
          DIIS, if invoked, will attempt to extrapolate 
          using up to (NFOCK): 10 stored Fock matrices.

                    Damping( 0%)  Levelshifting(0.5)       DIIS
                  --------------- ------------------- ---------------
          dE  on:    start            ASAP                start   
          dE off:    2 iters        500 iters           500 iters 

 
      Screening Tolerance Information
      -------------------------------
          Density screening/tol_rho:  1.00D-10
          AO Gaussian exp screening on grid/accAOfunc:  14
          CD Gaussian exp screening on grid/accCDfunc:  20
          XC Gaussian exp screening on grid/accXCfunc:  20
          Schwarz screening/accCoul:  1.00D-08

 
 WARNING : Found     7 linear dependencies 
 S eigenvalue threshold:     1.00000E-05
 Smallest S eigenvalue :     1.46639E-06
 Largest  S eigenvalue :     7.78849E-06
 

 !! The overlap matrix has   7 vectors deemed linearly dependent with
    eigenvalues:
 1.47D-06 2.23D-06 2.82D-06 3.55D-06 5.28D-06 5.97D-06 7.79D-06
 
 
      Superposition of Atomic Density Guess
      -------------------------------------
 
 Sum of atomic energies:        -228.52307259
 
      Non-variational initial energy
      ------------------------------

 Total energy =    -232.664017
 1-e energy   =    -691.268608
 2-e energy   =     263.571917
 HOMO         =      -0.184118
 LUMO         =      -0.022270
 
   Time after variat. SCF:     20.0
   Time prior to 1st pass:     20.0

 Grid_pts file          = ./mode992.29-p.gridpts.00
 Record size in doubles =  12289        No. of grid_pts per rec  =   3070
 Max. records in memory =      6        Max. recs in file   = 236467075

 Grid integrated density:      40.999764387183
 Requested integration accuracy:   0.10E-05

           Memory utilization after 1st SCF pass: 
           Heap Space remaining (MW):       12.96            12961280
          Stack Space remaining (MW):       13.10            13103676

   convergence    iter        energy       DeltaE   RMS-Dens  Diis-err    time
 ---------------- ----- ----------------- --------- --------- ---------  ------
 d= 0,ls=0.0,diis     1   -231.5813791559 -4.27D+02  6.27D-02  2.09D-01    30.7
                                                     7.10D-02  1.96D-01
 d= 0,ls=0.0,diis     2   -231.6397581960 -5.84D-02  6.18D-02  1.23D-02    41.4
                                                     6.99D-02  1.26D-02
 d= 0,ls=0.0,diis     3   -231.6445617872 -4.80D-03  1.29D-03  3.54D-03    52.0
                                                     1.40D-03  3.57D-03
 d= 0,ls=0.0,diis     4   -231.6457460354 -1.18D-03  2.07D-04  1.14D-03    62.7
                                                     2.12D-04  1.09D-03
 d= 0,ls=0.0,diis     5   -231.6462737035 -5.28D-04  3.40D-05  4.48D-05    73.4
                                                     3.10D-05  4.92D-05
  Resetting Diis
 d= 0,ls=0.0,diis     6   -231.6463015410 -2.78D-05  1.09D-05  9.58D-06    84.1
                                                     1.06D-05  8.35D-06
 d= 0,ls=0.0,diis     7   -231.6463085650 -7.02D-06  8.07D-06  2.48D-06    94.8
                                                     7.05D-06  2.53D-06
 d= 0,ls=0.0,diis     8   -231.6463093602 -7.95D-07  3.26D-06  6.48D-06   105.5
                                                     2.91D-06  5.87D-06


         Total DFT energy =     -231.646309360165
      One electron energy =     -696.501014727059
           Coulomb energy =      304.230428625544
    Exchange-Corr. energy =      -34.408396935554
 Nuclear repulsion energy =      195.032673676904

 Numeric. integr. density =       40.999983529603

     Total iterative time =     85.5s


 
                    DFT Final Alpha Molecular Orbital Analysis
                    ------------------------------------------
 
 Vector    1  Occ=1.000000D+00  E=-1.020548D+01
              MO Center= -8.8D-02,  1.4D+00,  4.8D-08, r^2= 3.0D-02
   Bfn.  Coefficient  Atom+Function         Bfn.  Coefficient  Atom+Function  
  ----- ------------  ---------------      ----- ------------  ---------------
     1      0.984163   1 C  s                 3      0.058816   1 C  s         
    50     -0.038317   2 C  s               143      0.038222   4 C  s         
   234     -0.038317   6 C  s               279      0.037982   7 H  s         
   371      0.037984  11 H  s                51     -0.030846   2 C  s         
   235     -0.030847   6 C  s                47      0.025046   2 C  s         
 
 Vector    2  Occ=1.000000D+00  E=-1.019188D+01
              MO Center=  7.6D-01, -5.3D-01, -1.5D-08, r^2= 1.0D+00
   Bfn.  Coefficient  Atom+Function         Bfn.  Coefficient  Atom+Function  
  ----- ------------  ---------------      ----- ------------  ---------------
   185      0.862028   5 C  s                93      0.430446   3 C  s         
   231      0.187333   6 C  s               142     -0.093828   4 C  s         
    47      0.082024   2 C  s               139      0.056433   4 C  s         
   187      0.051572   5 C  s               348      0.048722  10 H  s         
   325      0.047736   9 H  s                50      0.035280   2 C  s         
 
 Vector    3  Occ=1.000000D+00  E=-1.019186D+01
              MO Center= -6.9D-01, -6.0D-01, -2.1D-08, r^2= 1.1D+00
   Bfn.  Coefficient  Atom+Function         Bfn.  Coefficient  Atom+Function  
  ----- ------------  ---------------      ----- ------------  ---------------
    93      0.859563   3 C  s               185     -0.425574   5 C  s         
    47      0.202446   2 C  s               231     -0.112101   6 C  s         
   234      0.062438   6 C  s               302      0.059686   8 H  s         
   235      0.053764   6 C  s               371     -0.052568  11 H  s         
    50     -0.051613   2 C  s                95      0.051249   3 C  s         
 
 Vector    4  Occ=1.000000D+00  E=-1.019050D+01
              MO Center=  9.4D-01,  7.7D-01,  3.9D-08, r^2= 6.2D-01
   Bfn.  Coefficient  Atom+Function         Bfn.  Coefficient  Atom+Function  
  ----- ------------  ---------------      ----- ------------  ---------------
   231      0.915574   6 C  s                47      0.300129   2 C  s         
   185     -0.200221   5 C  s               371      0.057178  11 H  s         
    93     -0.053521   3 C  s               233      0.053522   6 C  s         
   143      0.039997   4 C  s                 4     -0.036760   1 C  s         
   142     -0.032785   4 C  s               325     -0.030224   9 H  s         
 
 Vector    5  Occ=1.000000D+00  E=-1.019048D+01
              MO Center= -1.0D+00,  6.3D-01, -1.7D-08, r^2= 6.4D-01
   Bfn.  Coefficient  Atom+Function         Bfn.  Coefficient  Atom+Function  
  ----- ------------  ---------------      ----- ------------  ---------------
    47      0.913074   2 C  s               231     -0.292501   6 C  s         
    93     -0.208510   3 C  s               185      0.078643   5 C  s         
   279      0.053421   7 H  s                49      0.052793   2 C  s         
   189      0.047010   5 C  s               188      0.042364   5 C  s         
    97     -0.041523   3 C  s                96     -0.039250   3 C  s         
 
 Vector    6  Occ=1.000000D+00  E=-1.018443D+01
              MO Center=  8.3D-02, -1.3D+00,  3.9D-08, r^2= 3.5D-02
   Bfn.  Coefficient  Atom+Function         Bfn.  Coefficient  Atom+Function  
  ----- ------------  ---------------      ----- ------------  ---------------
   139      0.984252   4 C  s               141      0.057780   4 C  s         
    96     -0.045455   3 C  s               188     -0.045454   5 C  s         
   325      0.045290   9 H  s               143     -0.043048   4 C  s         
    93     -0.040057   3 C  s               185     -0.039984   5 C  s         
     4      0.039587   1 C  s               151      0.035799   4 C  py        
 
 Vector    7  Occ=1.000000D+00  E=-8.723245D-01
              MO Center= -6.1D-03,  9.7D-02,  4.7D-09, r^2= 2.0D+00
   Bfn.  Coefficient  Atom+Function         Bfn.  Coefficient  Atom+Function  
  ----- ------------  ---------------      ----- ------------  ---------------
     2      0.213458   1 C  s                48      0.202722   2 C  s         
   232      0.202737   6 C  s                94      0.195560   3 C  s         
   186      0.195575   5 C  s               140      0.188746   4 C  s         
    50      0.089812   2 C  s               234      0.089814   6 C  s         
    96      0.088782   3 C  s               188      0.088789   5 C  s         
 
 Vector    8  Occ=1.000000D+00  E=-7.627115D-01
              MO Center= -6.2D-03,  9.8D-02,  1.4D-09, r^2= 2.8D+00
   Bfn.  Coefficient  Atom+Function         Bfn.  Coefficient  Atom+Function  
  ----- ------------  ---------------      ----- ------------  ---------------
    48      0.250774   2 C  s               232     -0.250764   6 C  s         
    94      0.243920   3 C  s               186     -0.243915   5 C  s         
    50      0.146398   2 C  s               234     -0.146397   6 C  s         
   279     -0.129348   7 H  s               371      0.129350  11 H  s         
   150     -0.115709   4 C  px               97      0.110820   3 C  s         
 
 Vector    9  Occ=1.000000D+00  E=-7.537096D-01
              MO Center=  9.1D-03, -1.4D-01, -2.7D-08, r^2= 2.6D+00
   Bfn.  Coefficient  Atom+Function         Bfn.  Coefficient  Atom+Function  
  ----- ------------  ---------------      ----- ------------  ---------------
   140     -0.300759   4 C  s                 2      0.278618   1 C  s         
    48      0.148250   2 C  s                94     -0.148645   3 C  s         
   186     -0.148651   5 C  s               232      0.148260   6 C  s         
   142     -0.145672   4 C  s                96     -0.104360   3 C  s         
   188     -0.104364   5 C  s                 4      0.103201   1 C  s         
 
 Vector   10  Occ=1.000000D+00  E=-6.187607D-01
              MO Center= -2.5D-03,  4.0D-02, -1.0D-08, r^2= 3.6D+00
   Bfn.  Coefficient  Atom+Function         Bfn.  Coefficient  Atom+Function  
  ----- ------------  ---------------      ----- ------------  ---------------
    94     -0.208336   3 C  s               186      0.208341   5 C  s         
    48      0.199730   2 C  s               232     -0.199725   6 C  s         
    50      0.183292   2 C  s               234     -0.183284   6 C  s         
    96     -0.146127   3 C  s               188      0.146126   5 C  s         
     6     -0.127092   1 C  px              144      0.117007   4 C  px        
 
 Vector   11  Occ=1.000000D+00  E=-6.036059D-01
              MO Center=  5.5D-03, -8.7D-02, -3.2D-08, r^2= 3.5D+00
   Bfn.  Coefficient  Atom+Function         Bfn.  Coefficient  Atom+Function  
  ----- ------------  ---------------      ----- ------------  ---------------
   142      0.257754   4 C  s                 2      0.238837   1 C  s         
   140      0.218895   4 C  s                 4      0.199154   1 C  s         
    94     -0.138308   3 C  s               186     -0.138291   5 C  s         
    50     -0.122522   2 C  s               234     -0.122525   6 C  s         
    96     -0.119655   3 C  s               188     -0.119644   5 C  s         
 
 Vector   12  Occ=1.000000D+00  E=-5.276055D-01
              MO Center=  9.8D-03, -1.5D-01, -1.1D-08, r^2= 4.1D+00
   Bfn.  Coefficient  Atom+Function         Bfn.  Coefficient  Atom+Function  
  ----- ------------  ---------------      ----- ------------  ---------------
   148      0.159718   4 C  py              145      0.139018   4 C  py        
   324     -0.126715   9 H  s                55      0.105223   2 C  px        
   240     -0.104968   6 C  py              323     -0.100250   9 H  s         
   237     -0.096187   6 C  py              193     -0.094739   5 C  px        
   278     -0.093990   7 H  s               370     -0.093998  11 H  s         
 
 Vector   13  Occ=1.000000D+00  E=-4.645186D-01
              MO Center= -6.4D-03,  1.0D-01,  2.7D-10, r^2= 2.7D+00
   Bfn.  Coefficient  Atom+Function         Bfn.  Coefficient  Atom+Function  
  ----- ------------  ---------------      ----- ------------  ---------------
     9      0.188939   1 C  px                6      0.175118   1 C  px        
   147      0.172515   4 C  px              144      0.159237   4 C  px        
   239     -0.136478   6 C  px              194     -0.135129   5 C  py        
    56     -0.131829   2 C  py              191     -0.121724   5 C  py        
   236     -0.121444   6 C  px               55     -0.120826   2 C  px        
 
 Vector   14  Occ=1.000000D+00  E=-4.633762D-01
              MO Center=  1.0D-02, -1.6D-01, -4.3D-08, r^2= 4.8D+00
   Bfn.  Coefficient  Atom+Function         Bfn.  Coefficient  Atom+Function  
  ----- ------------  ---------------      ----- ------------  ---------------
     2      0.176324   1 C  s               301      0.136679   8 H  s         
   347      0.136699  10 H  s               140     -0.129909   4 C  s         
   193      0.127189   5 C  px              196      0.120291   5 C  px        
    96      0.118218   3 C  s               101     -0.118041   3 C  px        
   188      0.118204   5 C  s               190      0.118160   5 C  px        
 
 Vector   15  Occ=1.000000D+00  E=-4.399174D-01
              MO Center= -1.2D-02,  2.0D-01, -2.6D-08, r^2= 4.0D+00
   Bfn.  Coefficient  Atom+Function         Bfn.  Coefficient  Atom+Function  
  ----- ------------  ---------------      ----- ------------  ---------------
   240      0.143697   6 C  py              102      0.138946   3 C  py        
   237      0.132591   6 C  py              278     -0.130748   7 H  s         
   370      0.130753  11 H  s                99      0.129982   3 C  py        
    55      0.128771   2 C  px               56     -0.128546   2 C  py        
   194     -0.126489   5 C  py               53     -0.119413   2 C  py        
 
 Vector   16  Occ=1.000000D+00  E=-3.984838D-01
              MO Center=  4.9D-02, -7.8D-01, -9.9D-09, r^2= 3.3D+00
   Bfn.  Coefficient  Atom+Function         Bfn.  Coefficient  Atom+Function  
  ----- ------------  ---------------      ----- ------------  ---------------
   148      0.233776   4 C  py              145      0.209365   4 C  py        
   324     -0.198167   9 H  s               151      0.173851   4 C  py        
   323     -0.153945   9 H  s                10      0.138919   1 C  py        
    13      0.120887   1 C  py              240      0.115064   6 C  py        
    56      0.109267   2 C  py                7      0.108245   1 C  py        
 
 Vector   17  Occ=1.000000D+00  E=-3.836171D-01
              MO Center= -7.5D-03,  1.2D-01, -5.8D-08, r^2= 2.7D+00
   Bfn.  Coefficient  Atom+Function         Bfn.  Coefficient  Atom+Function  
  ----- ------------  ---------------      ----- ------------  ---------------
    11      0.172872   1 C  pz               57      0.156607   2 C  pz        
   241      0.156617   6 C  pz              103      0.152097   3 C  pz        
   195      0.152108   5 C  pz              149      0.146354   4 C  pz        
     8      0.136407   1 C  pz               54      0.125890   2 C  pz        
   238      0.125898   6 C  pz              100      0.121656   3 C  pz        
 
 Vector   18  Occ=1.000000D+00  E=-3.661656D-01
              MO Center=  8.2D-03, -1.3D-01, -2.8D-08, r^2= 4.1D+00
   Bfn.  Coefficient  Atom+Function         Bfn.  Coefficient  Atom+Function  
  ----- ------------  ---------------      ----- ------------  ---------------
   147     -0.169153   4 C  px              101      0.164306   3 C  px        
   193      0.164095   5 C  px              144     -0.159712   4 C  px        
     9      0.149889   1 C  px               98      0.148646   3 C  px        
   190      0.148215   5 C  px                6      0.142019   1 C  px        
   196      0.134674   5 C  px              239     -0.134053   6 C  px        
 
 Vector   19  Occ=1.000000D+00  E=-2.684805D-01
              MO Center=  9.1D-04, -1.4D-02,  7.9D-08, r^2= 3.0D+00
   Bfn.  Coefficient  Atom+Function         Bfn.  Coefficient  Atom+Function  
  ----- ------------  ---------------      ----- ------------  ---------------
    11      0.244970   1 C  pz              149     -0.238881   4 C  pz        
     8      0.192694   1 C  pz              146     -0.190926   4 C  pz        
    14      0.176294   1 C  pz              152     -0.171836   4 C  pz        
   103     -0.126081   3 C  pz              195     -0.126225   5 C  pz        
    57      0.115263   2 C  pz              241      0.115129   6 C  pz        
 
 Vector   20  Occ=1.000000D+00  E=-2.679106D-01
              MO Center= -4.0D-03,  6.2D-02,  2.8D-07, r^2= 3.1D+00
   Bfn.  Coefficient  Atom+Function         Bfn.  Coefficient  Atom+Function  
  ----- ------------  ---------------      ----- ------------  ---------------
   103      0.207127   3 C  pz              195     -0.207037   5 C  pz        
    57      0.204190   2 C  pz              241     -0.204263   6 C  pz        
   100      0.165064   3 C  pz              192     -0.164993   5 C  pz        
    54      0.163467   2 C  pz              238     -0.163525   6 C  pz        
    60      0.150667   2 C  pz              244     -0.150716   6 C  pz        
 
 Vector   21  Occ=1.000000D+00  E=-2.490531D-01
              MO Center= -8.2D-02,  1.3D+00,  8.4D-08, r^2= 2.3D+00
   Bfn.  Coefficient  Atom+Function         Bfn.  Coefficient  Atom+Function  
  ----- ------------  ---------------      ----- ------------  ---------------
    10      0.385455   1 C  py               13      0.336826   1 C  py        
     5      0.334966   1 C  s                 7      0.298930   1 C  py        
     4      0.280605   1 C  s                 2      0.139546   1 C  s         
   243     -0.135653   6 C  py               59     -0.133551   2 C  py        
   102      0.112377   3 C  py              194      0.112410   5 C  py        
 
 Vector   22  Occ=0.000000D+00  E=-2.609558D-02
              MO Center= -4.1D-03,  6.5D-02, -1.1D-06, r^2= 4.3D+00
   Bfn.  Coefficient  Atom+Function         Bfn.  Coefficient  Atom+Function  
  ----- ------------  ---------------      ----- ------------  ---------------
   109     -0.319871   3 C  pz              201      0.319892   5 C  pz        
    63      0.314029   2 C  pz              247     -0.314038   6 C  pz        
    60      0.226669   2 C  pz              244     -0.226674   6 C  pz        
   106     -0.223926   3 C  pz              198      0.223939   5 C  pz        
    57      0.218748   2 C  pz              241     -0.218750   6 C  pz        
 
 Vector   23  Occ=0.000000D+00  E=-1.871279D-02
              MO Center=  2.8D-03, -4.5D-02, -4.1D-06, r^2= 4.3D+00
   Bfn.  Coefficient  Atom+Function         Bfn.  Coefficient  Atom+Function  
  ----- ------------  ---------------      ----- ------------  ---------------
   155      0.439264   4 C  pz               17      0.372435   1 C  pz        
   152      0.273067   4 C  pz               11      0.259172   1 C  pz        
   149      0.250698   4 C  pz               14      0.241145   1 C  pz        
   109     -0.226417   3 C  pz              201     -0.226404   5 C  pz        
     8      0.200844   1 C  pz              146      0.198120   4 C  pz        
 
 Vector   24  Occ=0.000000D+00  E=-1.012118D-02
              MO Center=  6.1D-02, -9.6D-01, -2.4D-06, r^2= 2.0D+01
   Bfn.  Coefficient  Atom+Function         Bfn.  Coefficient  Atom+Function  
  ----- ------------  ---------------      ----- ------------  ---------------
     5      1.446056   1 C  s               279     -0.977415   7 H  s         
   371     -0.977390  11 H  s               326     -0.740620   9 H  s         
   303     -0.732068   8 H  s               349     -0.732232  10 H  s         
   302     -0.652666   8 H  s               348     -0.652645  10 H  s         
   325     -0.583256   9 H  s                51      0.561486   2 C  s         
 
 Vector   25  Occ=0.000000D+00  E= 4.375535D-03
              MO Center=  1.6D-02, -2.6D-01, -9.3D-06, r^2= 2.7D+01
   Bfn.  Coefficient  Atom+Function         Bfn.  Coefficient  Atom+Function  
  ----- ------------  ---------------      ----- ------------  ---------------
    51      2.717853   2 C  s               235     -2.718261   6 C  s         
    97      2.671383   3 C  s               189     -2.671376   5 C  s         
   303      1.995948   8 H  s               349     -1.995903  10 H  s         
    15      1.862371   1 C  px              153      1.806548   4 C  px        
   280      1.538640   7 H  s               372     -1.538757  11 H  s         
 
 Vector   26  Occ=0.000000D+00  E= 8.737603D-03
              MO Center=  4.4D-03, -6.9D-02,  5.5D-05, r^2= 2.7D+01
   Bfn.  Coefficient  Atom+Function         Bfn.  Coefficient  Atom+Function  
  ----- ------------  ---------------      ----- ------------  ---------------
   143      6.239617   4 C  s                51     -4.005213   2 C  s         
   235     -4.005248   6 C  s               326      2.932390   9 H  s         
     5      2.586898   1 C  s               280     -2.389592   7 H  s         
   372     -2.389639  11 H  s               154      1.947624   4 C  py        
   246      1.932488   6 C  py               62      1.827939   2 C  py        
 
 Vector   27  Occ=0.000000D+00  E= 2.669775D-02
              MO Center= -1.5D-02,  2.4D-01, -2.4D-05, r^2= 3.1D+01
   Bfn.  Coefficient  Atom+Function         Bfn.  Coefficient  Atom+Function  
  ----- ------------  ---------------      ----- ------------  ---------------
   280      3.936561   7 H  s               372     -3.936601  11 H  s         
    51      3.676319   2 C  s               235     -3.676119   6 C  s         
   303     -3.599773   8 H  s               349      3.600178  10 H  s         
    61      2.228345   2 C  px               97     -2.197622   3 C  s         
   189      2.197560   5 C  s               199     -2.040707   5 C  px        
 
 Vector   28  Occ=0.000000D+00  E= 3.221065D-02
              MO Center=  3.9D-02, -6.2D-01, -1.2D-04, r^2= 2.9D+01
   Bfn.  Coefficient  Atom+Function         Bfn.  Coefficient  Atom+Function  
  ----- ------------  ---------------      ----- ------------  ---------------
     5      6.405948   1 C  s               326     -4.999732   9 H  s         
   303      3.723790   8 H  s               349      3.723436  10 H  s         
    97     -2.179728   3 C  s               154     -2.176051   4 C  py        
   189     -2.179910   5 C  s               199     -1.642904   5 C  px        
   245      1.633798   6 C  px               61     -1.580470   2 C  px        
 
 Vector   29  Occ=0.000000D+00  E= 4.332531D-02
              MO Center=  1.4D-02, -2.3D-01,  8.4D-06, r^2= 1.3D+01
   Bfn.  Coefficient  Atom+Function         Bfn.  Coefficient  Atom+Function  
  ----- ------------  ---------------      ----- ------------  ---------------
   155      0.565564   4 C  pz               63      0.542906   2 C  pz        
   247      0.542942   6 C  pz               17     -0.228362   1 C  pz        
    60     -0.149857   2 C  pz              244     -0.149838   6 C  pz        
   289     -0.117530   7 H  pz              381     -0.117531  11 H  pz        
   259      0.116664   6 C  d -1             75      0.104425   2 C  d -1      
 
 Vector   30  Occ=0.000000D+00  E= 5.499266D-02
              MO Center=  9.7D-03, -1.5D-01, -3.9D-05, r^2= 1.5D+01
   Bfn.  Coefficient  Atom+Function         Bfn.  Coefficient  Atom+Function  
  ----- ------------  ---------------      ----- ------------  ---------------
     5     10.572899   1 C  s               143      5.223498   4 C  s         
    51     -4.422982   2 C  s               235     -4.423246   6 C  s         
   303     -2.794915   8 H  s               349     -2.795031  10 H  s         
   326      2.045628   9 H  s               199      2.001132   5 C  px        
    97     -1.918672   3 C  s               189     -1.918861   5 C  s         
 
 Vector   31  Occ=0.000000D+00  E= 6.330133D-02
              MO Center= -4.1D-02,  6.5D-01, -1.1D-04, r^2= 2.8D+01
   Bfn.  Coefficient  Atom+Function         Bfn.  Coefficient  Atom+Function  
  ----- ------------  ---------------      ----- ------------  ---------------
     5     24.384849   1 C  s                51     -9.887189   2 C  s         
   235     -9.887587   6 C  s               143      7.670610   4 C  s         
    97     -6.498391   3 C  s               189     -6.498448   5 C  s         
   326      5.875735   9 H  s               154      4.776721   4 C  py        
   303     -4.686357   8 H  s               349     -4.686311  10 H  s         
 
 Vector   32  Occ=0.000000D+00  E= 6.573995D-02
              MO Center=  1.6D-03, -2.6D-02,  5.3D-04, r^2= 1.8D+01
   Bfn.  Coefficient  Atom+Function         Bfn.  Coefficient  Atom+Function  
  ----- ------------  ---------------      ----- ------------  ---------------
   109      0.977478   3 C  pz              201     -0.977498   5 C  pz        
    63      0.768725   2 C  pz              247     -0.768744   6 C  pz        
   169     -0.681847   4 C  d  1             31     -0.577724   1 C  d  1      
   106      0.495575   3 C  pz              198     -0.495568   5 C  pz        
    60      0.484025   2 C  pz              244     -0.484044   6 C  pz        
 
 Vector   33  Occ=0.000000D+00  E= 6.826064D-02
              MO Center= -1.2D-02,  1.9D-01, -2.7D-04, r^2= 1.8D+01
   Bfn.  Coefficient  Atom+Function         Bfn.  Coefficient  Atom+Function  
  ----- ------------  ---------------      ----- ------------  ---------------
    63      1.024717   2 C  pz              247      1.024753   6 C  pz        
   109     -0.811380   3 C  pz              201     -0.811478   5 C  pz        
   155     -0.750725   4 C  pz               14      0.631974   1 C  pz        
   152     -0.614310   4 C  pz               17      0.458509   1 C  pz        
   213     -0.448423   5 C  d -1            261     -0.408426   6 C  d  1      
 
 Vector   34  Occ=0.000000D+00  E= 7.646085D-02
              MO Center=  1.2D-02, -1.6D-01, -1.3D-04, r^2= 3.4D+01
   Bfn.  Coefficient  Atom+Function         Bfn.  Coefficient  Atom+Function  
  ----- ------------  ---------------      ----- ------------  ---------------
    51     13.797430   2 C  s               235    -13.794692   6 C  s         
    97     12.403620   3 C  s               189    -12.402447   5 C  s         
    15      7.659205   1 C  px              153      7.692035   4 C  px        
   107      4.747841   3 C  px              303      4.687769   8 H  s         
   349     -4.688617  10 H  s               199      4.449169   5 C  px        
 
 Vector   35  Occ=0.000000D+00  E= 7.791401D-02
              MO Center=  2.1D-01, -3.3D+00,  1.3D-04, r^2= 2.1D+01
   Bfn.  Coefficient  Atom+Function         Bfn.  Coefficient  Atom+Function  
  ----- ------------  ---------------      ----- ------------  ---------------
   143     18.174051   4 C  s                51    -13.397094   2 C  s         
   235    -13.403392   6 C  s               326      7.016367   9 H  s         
    62      5.633314   2 C  py              246      5.656885   6 C  py        
   200      5.367494   5 C  py              154      5.259613   4 C  py        
   108      5.011282   3 C  py              279      4.184092   7 H  s         
 
 Vector   36  Occ=0.000000D+00  E= 8.157135D-02
              MO Center= -8.9D-02,  1.4D+00,  6.7D-05, r^2= 2.8D+01
   Bfn.  Coefficient  Atom+Function         Bfn.  Coefficient  Atom+Function  
  ----- ------------  ---------------      ----- ------------  ---------------
   143     20.700158   4 C  s                51     -8.938560   2 C  s         
   235     -8.935582   6 C  s               246      5.269045   6 C  py        
    62      5.174215   2 C  py              325     -4.959620   9 H  s         
   280     -4.571825   7 H  s               372     -4.571117  11 H  s         
   326      4.511518   9 H  s               200      4.479936   5 C  py        
 
 Vector   37  Occ=0.000000D+00  E= 8.316567D-02
              MO Center=  4.6D-02, -7.3D-01, -1.1D-05, r^2= 2.2D+01
   Bfn.  Coefficient  Atom+Function         Bfn.  Coefficient  Atom+Function  
  ----- ------------  ---------------      ----- ------------  ---------------
    97      4.957657   3 C  s               189     -4.957355   5 C  s         
    51     -3.177371   2 C  s               235      3.175092   6 C  s         
   108      2.808888   3 C  py              303      2.811933   8 H  s         
   349     -2.811893  10 H  s               200     -2.692998   5 C  py        
   153      2.600953   4 C  px               96      2.070498   3 C  s         
 
 Vector   38  Occ=0.000000D+00  E= 9.537089D-02
              MO Center= -5.5D-02,  8.8D-01,  1.3D-05, r^2= 3.1D+01
   Bfn.  Coefficient  Atom+Function         Bfn.  Coefficient  Atom+Function  
  ----- ------------  ---------------      ----- ------------  ---------------
    51     17.738975   2 C  s               235    -17.737731   6 C  s         
   280      7.223897   7 H  s               372     -7.223971  11 H  s         
    97     -6.914697   3 C  s               189      6.914272   5 C  s         
   108     -6.455489   3 C  py              303     -6.198086   8 H  s         
   349      6.198843  10 H  s               200      5.911045   5 C  py        
 
 Vector   39  Occ=0.000000D+00  E= 1.018230D-01
              MO Center= -6.9D-03,  1.1D-01, -3.2D-04, r^2= 1.9D+01
   Bfn.  Coefficient  Atom+Function         Bfn.  Coefficient  Atom+Function  
  ----- ------------  ---------------      ----- ------------  ---------------
    51     13.582383   2 C  s               235    -13.582707   6 C  s         
    97     10.928085   3 C  s               189    -10.927902   5 C  s         
    15      9.961044   1 C  px              153      9.700983   4 C  px        
   246     -6.127005   6 C  py               62      5.941532   2 C  py        
   108     -5.967543   3 C  py              200      5.933827   5 C  py        
 
 Vector   40  Occ=0.000000D+00  E= 1.065158D-01
              MO Center= -8.4D-03,  1.3D-01, -5.7D-04, r^2= 2.1D+01
   Bfn.  Coefficient  Atom+Function         Bfn.  Coefficient  Atom+Function  
  ----- ------------  ---------------      ----- ------------  ---------------
   143     18.154368   4 C  s                51     -9.878567   2 C  s         
   235     -9.879420   6 C  s                 5     -9.498906   1 C  s         
   107     -8.742641   3 C  px              199      7.965625   5 C  px        
   245     -7.053443   6 C  px              200      6.691321   5 C  py        
    61      6.499116   2 C  px              108      5.638326   3 C  py        
 
 Vector   41  Occ=0.000000D+00  E= 1.081946D-01
              MO Center= -1.0D-02,  1.6D-01, -9.6D-05, r^2= 2.2D+01
   Bfn.  Coefficient  Atom+Function         Bfn.  Coefficient  Atom+Function  
  ----- ------------  ---------------      ----- ------------  ---------------
    63      3.392650   2 C  pz              247     -3.392566   6 C  pz        
   109     -3.359801   3 C  pz              201      3.359829   5 C  pz        
    60      0.694640   2 C  pz              244     -0.694613   6 C  pz        
   106     -0.637477   3 C  pz              198      0.637471   5 C  pz        
    77     -0.378888   2 C  d  1            215      0.361692   5 C  d  1      
 
 Vector   42  Occ=0.000000D+00  E= 1.089483D-01
              MO Center=  3.0D-02, -4.8D-01,  2.1D-03, r^2= 2.1D+01
   Bfn.  Coefficient  Atom+Function         Bfn.  Coefficient  Atom+Function  
  ----- ------------  ---------------      ----- ------------  ---------------
   155      5.335537   4 C  pz              109     -3.451789   3 C  pz        
   201     -3.451735   5 C  pz               17      2.489742   1 C  pz        
   152      0.982694   4 C  pz              106     -0.604183   3 C  pz        
   198     -0.604162   5 C  pz              167      0.567849   4 C  d -1      
    14      0.502821   1 C  pz               63     -0.462460   2 C  pz        
 
 Vector   43  Occ=0.000000D+00  E= 1.095042D-01
              MO Center=  2.8D-02, -4.5D-01, -1.1D-03, r^2= 2.7D+01
   Bfn.  Coefficient  Atom+Function         Bfn.  Coefficient  Atom+Function  
  ----- ------------  ---------------      ----- ------------  ---------------
   326      7.668521   9 H  s               154      7.059757   4 C  py        
   303     -6.467325   8 H  s               349     -6.466737  10 H  s         
   143     -5.623393   4 C  s               108     -4.430317   3 C  py        
   200     -4.185386   5 C  py               62     -4.164281   2 C  py        
   246     -4.142990   6 C  py                4      3.916598   1 C  s         
 
 Vector   44  Occ=0.000000D+00  E= 1.178088D-01
              MO Center= -4.2D-02,  6.6D-01, -4.2D-04, r^2= 1.4D+01
   Bfn.  Coefficient  Atom+Function         Bfn.  Coefficient  Atom+Function  
  ----- ------------  ---------------      ----- ------------  ---------------
    17      6.874445   1 C  pz               63     -6.016861   2 C  pz        
   247     -6.016983   6 C  pz              109      5.038744   3 C  pz        
   201      5.038875   5 C  pz              155     -4.806937   4 C  pz        
    14      1.230118   1 C  pz               60     -1.016524   2 C  pz        
   244     -1.016550   6 C  pz              106      0.884071   3 C  pz        
 
 Vector   45  Occ=0.000000D+00  E= 1.263999D-01
              MO Center= -1.9D-02,  3.0D-01, -2.0D-05, r^2= 2.5D+01
   Bfn.  Coefficient  Atom+Function         Bfn.  Coefficient  Atom+Function  
  ----- ------------  ---------------      ----- ------------  ---------------
    51      7.645008   2 C  s               235     -7.644742   6 C  s         
   107      7.180432   3 C  px              199      7.099905   5 C  px        
   245     -7.038666   6 C  px               61     -6.931787   2 C  px        
    15      6.486062   1 C  px               97     -6.201572   3 C  s         
   189      6.201791   5 C  s               153     -5.781150   4 C  px        
 
 Vector   46  Occ=0.000000D+00  E= 1.274314D-01
              MO Center= -1.1D-02,  1.8D-01,  1.4D-04, r^2= 2.6D+01
   Bfn.  Coefficient  Atom+Function         Bfn.  Coefficient  Atom+Function  
  ----- ------------  ---------------      ----- ------------  ---------------
   154     -8.076460   4 C  py               16      7.369308   1 C  py        
   108      6.916143   3 C  py              200      6.603521   5 C  py        
    62     -6.543646   2 C  py              246     -6.354800   6 C  py        
   326     -4.061330   9 H  s                 5      3.568375   1 C  s         
   303      3.164780   8 H  s               349      3.164252  10 H  s         
 
 Vector   47  Occ=0.000000D+00  E= 1.609226D-01
              MO Center= -8.6D-03,  1.4D-01,  9.5D-05, r^2= 1.7D+01
   Bfn.  Coefficient  Atom+Function         Bfn.  Coefficient  Atom+Function  
  ----- ------------  ---------------      ----- ------------  ---------------
    17      8.204627   1 C  pz               63     -8.016063   2 C  pz        
   247     -8.015967   6 C  pz              155     -7.874799   4 C  pz        
   109      7.787405   3 C  pz              201      7.787305   5 C  pz        
    60     -1.193576   2 C  pz              106      1.189286   3 C  pz        
   198      1.189263   5 C  pz              244     -1.193557   6 C  pz        
 
 Vector   48  Occ=0.000000D+00  E= 1.660115D-01
              MO Center= -8.9D-02,  1.4D+00,  3.2D-04, r^2= 2.2D+01
   Bfn.  Coefficient  Atom+Function         Bfn.  Coefficient  Atom+Function  
  ----- ------------  ---------------      ----- ------------  ---------------
     5     59.159959   1 C  s                51    -26.010675   2 C  s         
   143     25.982221   4 C  s               235    -26.012165   6 C  s         
    97    -14.400057   3 C  s               189    -14.399704   5 C  s         
   154      7.442256   4 C  py              245      6.820771   6 C  px        
    61     -6.403769   2 C  px              326      6.172418   9 H  s         
 
 Vector   49  Occ=0.000000D+00  E= 1.752856D-01
              MO Center=  2.5D-02, -3.9D-01, -1.6D-04, r^2= 1.1D+01
   Bfn.  Coefficient  Atom+Function         Bfn.  Coefficient  Atom+Function  
  ----- ------------  ---------------      ----- ------------  ---------------
   335      1.109555   9 H  pz              312      1.070890   8 H  pz        
   358      1.070938  10 H  pz              289      0.976385   7 H  pz        
   381      0.976424  11 H  pz               17      0.874200   1 C  pz        
   106     -0.848281   3 C  pz              198     -0.848332   5 C  pz        
    63     -0.805549   2 C  pz              247     -0.805578   6 C  pz        
 
 Vector   50  Occ=0.000000D+00  E= 1.864022D-01
              MO Center=  3.5D-02, -5.5D-01,  9.7D-05, r^2= 1.5D+01
   Bfn.  Coefficient  Atom+Function         Bfn.  Coefficient  Atom+Function  
  ----- ------------  ---------------      ----- ------------  ---------------
     5     15.328590   1 C  s                97     -7.206902   3 C  s         
   189     -7.206825   5 C  s                51     -4.486966   2 C  s         
   235     -4.487350   6 C  s               325      4.402015   9 H  s         
    62     -4.007612   2 C  py              154      3.951345   4 C  py        
   246     -3.787639   6 C  py              302      3.265457   8 H  s         
 
 Vector   51  Occ=0.000000D+00  E= 1.980972D-01
              MO Center= -2.9D-02,  4.7D-01,  3.6D-04, r^2= 2.3D+01
   Bfn.  Coefficient  Atom+Function         Bfn.  Coefficient  Atom+Function  
  ----- ------------  ---------------      ----- ------------  ---------------
    51     44.595254   2 C  s               235    -44.612688   6 C  s         
    97     25.169124   3 C  s               189    -25.164198   5 C  s         
    15     18.511397   1 C  px              153     17.058022   4 C  px        
   302    -14.014412   8 H  s               348     14.012861  10 H  s         
   200      9.155118   5 C  py              108     -8.435407   3 C  py        
 
 Vector   52  Occ=0.000000D+00  E= 1.985203D-01
              MO Center=  4.6D-02, -7.3D-01, -5.1D-04, r^2= 2.3D+01
   Bfn.  Coefficient  Atom+Function         Bfn.  Coefficient  Atom+Function  
  ----- ------------  ---------------      ----- ------------  ---------------
   143     61.289707   4 C  s                51    -34.536008   2 C  s         
   235    -34.515292   6 C  s               325    -16.907996   9 H  s         
    62     14.741748   2 C  py              246     14.472049   6 C  py        
   200     13.734550   5 C  py              108     12.533715   3 C  py        
     5    -11.586772   1 C  s               279     11.171048   7 H  s         
 
 Vector   53  Occ=0.000000D+00  E= 2.154451D-01
              MO Center=  9.2D-02, -1.5D+00, -4.6D-05, r^2= 1.5D+01
   Bfn.  Coefficient  Atom+Function         Bfn.  Coefficient  Atom+Function  
  ----- ------------  ---------------      ----- ------------  ---------------
    97     13.657816   3 C  s               189    -13.658019   5 C  s         
    96      6.530497   3 C  s               188     -6.530679   5 C  s         
   153      5.904746   4 C  px              279     -5.067572   7 H  s         
   371      5.067776  11 H  s               303      4.810937   8 H  s         
   349     -4.811200  10 H  s               246     -4.289688   6 C  py        
 
 Vector   54  Occ=0.000000D+00  E= 2.182463D-01
              MO Center=  1.8D-02, -2.9D-01, -1.7D-04, r^2= 1.5D+01
   Bfn.  Coefficient  Atom+Function         Bfn.  Coefficient  Atom+Function  
  ----- ------------  ---------------      ----- ------------  ---------------
   143     25.384014   4 C  s                51    -17.569368   2 C  s         
   235    -17.564754   6 C  s                 5     16.012395   1 C  s         
    16     -6.406128   1 C  py              325     -5.964867   9 H  s         
    62      4.758425   2 C  py              246      4.647548   6 C  py        
   279      3.649232   7 H  s               371      3.648556  11 H  s         
 
 Vector   55  Occ=0.000000D+00  E= 2.190823D-01
              MO Center=  5.1D-04, -8.8D-03,  1.1D-03, r^2= 1.5D+01
   Bfn.  Coefficient  Atom+Function         Bfn.  Coefficient  Atom+Function  
  ----- ------------  ---------------      ----- ------------  ---------------
    51     19.773397   2 C  s               235    -19.777148   6 C  s         
   108     -8.328995   3 C  py              200      7.983902   5 C  py        
    15      7.701738   1 C  px              302     -6.905477   8 H  s         
   348      6.905435  10 H  s               153      6.602771   4 C  px        
   246     -4.245152   6 C  py               62      4.103975   2 C  py        
 
 Vector   56  Occ=0.000000D+00  E= 2.301561D-01
              MO Center= -1.8D-02,  2.9D-01,  1.9D-03, r^2= 1.8D+01
   Bfn.  Coefficient  Atom+Function         Bfn.  Coefficient  Atom+Function  
  ----- ------------  ---------------      ----- ------------  ---------------
   199      4.890178   5 C  px              107      4.627416   3 C  px        
   153     -3.575083   4 C  px               50     -3.350244   2 C  s         
   234      3.350772   6 C  s               303      3.132529   8 H  s         
   349     -3.133396  10 H  s                15     -2.588117   1 C  px        
   108      2.372200   3 C  py              150      1.917369   4 C  px        
 
 Vector   57  Occ=0.000000D+00  E= 2.311907D-01
              MO Center=  5.0D-05, -8.6D-04, -3.8D-03, r^2= 1.6D+01
   Bfn.  Coefficient  Atom+Function         Bfn.  Coefficient  Atom+Function  
  ----- ------------  ---------------      ----- ------------  ---------------
   106      2.147348   3 C  pz              198     -2.147343   5 C  pz        
    60      2.040269   2 C  pz              244     -2.040305   6 C  pz        
   312     -1.818709   8 H  pz              358      1.818661  10 H  pz        
   289     -1.720060   7 H  pz              381      1.720103  11 H  pz        
   169     -1.386805   4 C  d  1             31     -1.237997   1 C  d  1      
 
 Vector   58  Occ=0.000000D+00  E= 2.354219D-01
              MO Center= -1.3D-02,  2.1D-01,  4.7D-04, r^2= 1.6D+01
   Bfn.  Coefficient  Atom+Function         Bfn.  Coefficient  Atom+Function  
  ----- ------------  ---------------      ----- ------------  ---------------
   143     15.104377   4 C  s                51    -10.585485   2 C  s         
   235    -10.605406   6 C  s               107     -8.201557   3 C  px        
   199      7.769105   5 C  px               61      5.424286   2 C  px        
   245     -5.311501   6 C  px              303     -4.413306   8 H  s         
   349     -4.410302  10 H  s                 5      4.112787   1 C  s         
 
 Vector   59  Occ=0.000000D+00  E= 2.363941D-01
              MO Center= -4.8D-03,  7.4D-02,  1.0D-03, r^2= 1.8D+01
   Bfn.  Coefficient  Atom+Function         Bfn.  Coefficient  Atom+Function  
  ----- ------------  ---------------      ----- ------------  ---------------
    97    -33.398101   3 C  s               189     33.397339   5 C  s         
    51     31.594618   2 C  s               235    -31.587005   6 C  s         
    96    -14.408074   3 C  s               188     14.409980   5 C  s         
   279     10.861033   7 H  s               371    -10.862734  11 H  s         
   302    -10.687068   8 H  s               348     10.687370  10 H  s         
 
 Vector   60  Occ=0.000000D+00  E= 2.434333D-01
              MO Center=  3.0D-03, -4.7D-02, -4.5D-04, r^2= 1.5D+01
   Bfn.  Coefficient  Atom+Function         Bfn.  Coefficient  Atom+Function  
  ----- ------------  ---------------      ----- ------------  ---------------
   152      3.415825   4 C  pz               14     -3.029418   1 C  pz        
   289      2.168739   7 H  pz              381      2.168732  11 H  pz        
   335     -2.124255   9 H  pz              261      2.003929   6 C  d  1      
    77     -1.989037   2 C  d  1             63     -1.599804   2 C  pz        
   247     -1.599872   6 C  pz              155      1.370084   4 C  pz        
 
 Vector   61  Occ=0.000000D+00  E= 2.594449D-01
              MO Center=  3.7D-02, -5.8D-01,  6.0D-05, r^2= 1.7D+01
   Bfn.  Coefficient  Atom+Function         Bfn.  Coefficient  Atom+Function  
  ----- ------------  ---------------      ----- ------------  ---------------
     5      8.495830   1 C  s               108     -6.612892   3 C  py        
   200     -6.027342   5 C  py              303     -5.169779   8 H  s         
   349     -5.169861  10 H  s               199      5.046020   5 C  px        
   143     -4.980998   4 C  s               197     -4.851129   5 C  py        
   105     -4.749255   3 C  py              107     -4.249176   3 C  px        
 
 Vector   62  Occ=0.000000D+00  E= 2.620991D-01
              MO Center=  6.9D-02, -1.1D+00, -5.0D-05, r^2= 1.7D+01
   Bfn.  Coefficient  Atom+Function         Bfn.  Coefficient  Atom+Function  
  ----- ------------  ---------------      ----- ------------  ---------------
     5     19.065211   1 C  s               154     15.465826   4 C  py        
   143     15.030688   4 C  s                51    -14.543242   2 C  s         
   235    -14.542280   6 C  s               326      9.217425   9 H  s         
     4      6.041522   1 C  s               108     -4.897209   3 C  py        
    97     -4.682732   3 C  s               189     -4.683853   5 C  s         
 
 Vector   63  Occ=0.000000D+00  E= 2.676223D-01
              MO Center= -2.7D-02,  4.3D-01,  6.5D-05, r^2= 2.0D+01
   Bfn.  Coefficient  Atom+Function         Bfn.  Coefficient  Atom+Function  
  ----- ------------  ---------------      ----- ------------  ---------------
    51     20.061891   2 C  s               235    -20.062509   6 C  s         
    97    -11.842160   3 C  s               189     11.841620   5 C  s         
    61     11.005510   2 C  px              245     10.254172   6 C  px        
   279      8.742968   7 H  s               371     -8.742447  11 H  s         
    96     -8.654051   3 C  s               188      8.653898   5 C  s         
 
 Vector   64  Occ=0.000000D+00  E= 2.747972D-01
              MO Center= -2.4D-03,  3.8D-02,  6.7D-05, r^2= 1.4D+01
   Bfn.  Coefficient  Atom+Function         Bfn.  Coefficient  Atom+Function  
  ----- ------------  ---------------      ----- ------------  ---------------
   143      8.886607   4 C  s                 5      8.533288   1 C  s         
   154      5.696924   4 C  py              279     -5.721346   7 H  s         
   371     -5.721967  11 H  s               302     -4.635036   8 H  s         
   348     -4.635250  10 H  s               325     -4.303083   9 H  s         
    16     -3.979876   1 C  py              246      3.269439   6 C  py        
 
 Vector   65  Occ=0.000000D+00  E= 2.828095D-01
              MO Center= -1.1D-02,  1.8D-01, -1.7D-05, r^2= 1.6D+01
   Bfn.  Coefficient  Atom+Function         Bfn.  Coefficient  Atom+Function  
  ----- ------------  ---------------      ----- ------------  ---------------
    12      9.475311   1 C  px               97      9.023042   3 C  s         
   189     -9.022942   5 C  s                51     -8.062877   2 C  s         
   235      8.063197   6 C  s               302      8.099446   8 H  s         
   348     -8.099689  10 H  s               199      7.689772   5 C  px        
   107      7.217225   3 C  px              150      6.176976   4 C  px        
 
 Vector   66  Occ=0.000000D+00  E= 2.954073D-01
              MO Center= -3.0D-03,  4.9D-02, -1.5D-05, r^2= 1.6D+01
   Bfn.  Coefficient  Atom+Function         Bfn.  Coefficient  Atom+Function  
  ----- ------------  ---------------      ----- ------------  ---------------
    63      3.201978   2 C  pz              247     -3.202181   6 C  pz        
   109     -3.184464   3 C  pz              201      3.184848   5 C  pz        
   289     -2.281421   7 H  pz              381      2.281396  11 H  pz        
    60      2.252410   2 C  pz              244     -2.252390   6 C  pz        
   312      2.258992   8 H  pz              358     -2.259098  10 H  pz        
 
 Vector   67  Occ=0.000000D+00  E= 2.962389D-01
              MO Center= -6.0D-02,  9.5D-01,  4.1D-04, r^2= 1.4D+01
   Bfn.  Coefficient  Atom+Function         Bfn.  Coefficient  Atom+Function  
  ----- ------------  ---------------      ----- ------------  ---------------
     4     10.389980   1 C  s                59     -5.730578   2 C  py        
   243     -5.621900   6 C  py                5      5.537520   1 C  s         
   105     -5.553553   3 C  py              197     -5.162619   5 C  py        
    16      4.253917   1 C  py              279     -4.197122   7 H  s         
   371     -4.197216  11 H  s               325     -4.008034   9 H  s         
 
 Vector   68  Occ=0.000000D+00  E= 3.079900D-01
              MO Center=  1.7D-02, -2.7D-01, -4.6D-04, r^2= 1.5D+01
   Bfn.  Coefficient  Atom+Function         Bfn.  Coefficient  Atom+Function  
  ----- ------------  ---------------      ----- ------------  ---------------
   155      5.178964   4 C  pz               14      4.354708   1 C  pz        
   109     -3.739264   3 C  pz              201     -3.739116   5 C  pz        
   335     -2.707071   9 H  pz               60     -2.057243   2 C  pz        
   244     -2.057345   6 C  pz               17      1.835624   1 C  pz        
   152      1.840849   4 C  pz              312      1.727662   8 H  pz        
 
 Vector   69  Occ=0.000000D+00  E= 3.151163D-01
              MO Center=  4.2D-03, -6.7D-02,  1.8D-05, r^2= 9.1D+00
   Bfn.  Coefficient  Atom+Function         Bfn.  Coefficient  Atom+Function  
  ----- ------------  ---------------      ----- ------------  ---------------
   261      1.201288   6 C  d  1             77      1.088857   2 C  d  1      
   169     -0.999848   4 C  d  1             75     -0.965784   2 C  d -1      
   259      0.821432   6 C  d -1            289     -0.718289   7 H  pz        
   381      0.718287  11 H  pz               31      0.551083   1 C  d  1      
    60     -0.316456   2 C  pz              244      0.316258   6 C  pz        
 
 Vector   70  Occ=0.000000D+00  E= 3.286724D-01
              MO Center=  3.9D-02, -6.1D-01,  5.6D-05, r^2= 1.5D+01
   Bfn.  Coefficient  Atom+Function         Bfn.  Coefficient  Atom+Function  
  ----- ------------  ---------------      ----- ------------  ---------------
   142     12.022086   4 C  s                96      8.724535   3 C  s         
   188      8.724503   5 C  s               151     -6.770341   4 C  py        
   325     -5.688297   9 H  s                 4     -5.137163   1 C  s         
   334     -4.970870   9 H  py                5      4.784102   1 C  s         
   302     -4.443091   8 H  s               348     -4.443529  10 H  s         
 
 Vector   71  Occ=0.000000D+00  E= 3.349718D-01
              MO Center= -1.4D-03,  2.2D-02,  2.0D-04, r^2= 7.7D+00
   Bfn.  Coefficient  Atom+Function         Bfn.  Coefficient  Atom+Function  
  ----- ------------  ---------------      ----- ------------  ---------------
   289      1.969357   7 H  pz              381      1.969227  11 H  pz        
   335      1.772466   9 H  pz               14     -1.753880   1 C  pz        
   155     -1.641728   4 C  pz               77     -1.474436   2 C  d  1      
    63     -1.453686   2 C  pz              247     -1.453677   6 C  pz        
   261      1.382804   6 C  d  1            106     -1.171679   3 C  pz        
 
 Vector   72  Occ=0.000000D+00  E= 3.433268D-01
              MO Center=  2.5D-02, -3.9D-01, -4.3D-03, r^2= 1.2D+01
   Bfn.  Coefficient  Atom+Function         Bfn.  Coefficient  Atom+Function  
  ----- ------------  ---------------      ----- ------------  ---------------
   169      3.311947   4 C  d  1             31      2.684314   1 C  d  1      
   312     -2.480186   8 H  pz              358      2.480419  10 H  pz        
   123      2.188710   3 C  d  1            215      2.148717   5 C  d  1      
   106     -1.812997   3 C  pz              198      1.812965   5 C  pz        
   289     -1.424259   7 H  pz              381      1.424502  11 H  pz        
 
 Vector   73  Occ=0.000000D+00  E= 3.450638D-01
              MO Center= -3.4D-02,  5.5D-01, -2.2D-03, r^2= 1.2D+01
   Bfn.  Coefficient  Atom+Function         Bfn.  Coefficient  Atom+Function  
  ----- ------------  ---------------      ----- ------------  ---------------
   143     23.466875   4 C  s               325    -12.998467   9 H  s         
   279     12.039897   7 H  s               371     12.036244  11 H  s         
    51    -11.578476   2 C  s               235    -11.570854   6 C  s         
     5     -8.111705   1 C  s               197     -6.925276   5 C  py        
   105     -6.811780   3 C  py              243     -5.958353   6 C  py        
 
 Vector   74  Occ=0.000000D+00  E= 3.480557D-01
              MO Center=  9.9D-03, -1.6D-01,  3.9D-03, r^2= 1.2D+01
   Bfn.  Coefficient  Atom+Function         Bfn.  Coefficient  Atom+Function  
  ----- ------------  ---------------      ----- ------------  ---------------
    51     21.105642   2 C  s               235    -21.105086   6 C  s         
   302    -12.045348   8 H  s               348     12.043582  10 H  s         
    97     11.197277   3 C  s               189    -11.196103   5 C  s         
   279     -9.898143   7 H  s               371      9.901477  11 H  s         
    12     -8.087854   1 C  px              150     -6.999205   4 C  px        
 
 Vector   75  Occ=0.000000D+00  E= 3.482336D-01
              MO Center=  3.1D-02, -5.0D-01,  3.3D-03, r^2= 1.3D+01
   Bfn.  Coefficient  Atom+Function         Bfn.  Coefficient  Atom+Function  
  ----- ------------  ---------------      ----- ------------  ---------------
   155     -4.040092   4 C  pz               17      3.860824   1 C  pz        
   109      3.628812   3 C  pz              201      3.628816   5 C  pz        
    63     -3.529040   2 C  pz              247     -3.528950   6 C  pz        
   152     -2.973286   4 C  pz              213     -2.305546   5 C  d -1      
   289      2.293976   7 H  pz              381      2.294457  11 H  pz        
 
 Vector   76  Occ=0.000000D+00  E= 3.527378D-01
              MO Center=  3.4D-02, -5.4D-01, -2.2D-04, r^2= 1.4D+01
   Bfn.  Coefficient  Atom+Function         Bfn.  Coefficient  Atom+Function  
  ----- ------------  ---------------      ----- ------------  ---------------
    17      6.370849   1 C  pz               63     -5.845887   2 C  pz        
   247     -5.845841   6 C  pz              109      5.111456   3 C  pz        
   201      5.111431   5 C  pz              155     -4.840083   4 C  pz        
   335      4.014596   9 H  pz               14      3.738553   1 C  pz        
   167      3.128428   4 C  d -1             60     -2.668532   2 C  pz        
 
 Vector   77  Occ=0.000000D+00  E= 3.544210D-01
              MO Center= -2.1D-02,  3.3D-01, -6.8D-04, r^2= 1.5D+01
   Bfn.  Coefficient  Atom+Function         Bfn.  Coefficient  Atom+Function  
  ----- ------------  ---------------      ----- ------------  ---------------
     5     31.199351   1 C  s               143     16.302995   4 C  s         
    51    -15.961998   2 C  s               235    -15.963927   6 C  s         
   151    -11.100155   4 C  py              196     -7.544502   5 C  px        
    50      7.431691   2 C  s               234      7.431140   6 C  s         
    13      7.334515   1 C  py              104      7.115314   3 C  px        
 
 Vector   78  Occ=0.000000D+00  E= 3.598525D-01
              MO Center= -4.7D-02,  7.5D-01,  2.4D-04, r^2= 1.3D+01
   Bfn.  Coefficient  Atom+Function         Bfn.  Coefficient  Atom+Function  
  ----- ------------  ---------------      ----- ------------  ---------------
   289      3.408694   7 H  pz              381     -3.408608  11 H  pz        
    60      3.156898   2 C  pz              244     -3.156855   6 C  pz        
    77     -3.087315   2 C  d  1            121     -3.084314   3 C  d -1      
   259      3.017916   6 C  d -1            213      2.782783   5 C  d -1      
   312     -2.759543   8 H  pz              358      2.759650  10 H  pz        
 
 Vector   79  Occ=0.000000D+00  E= 3.682232D-01
              MO Center=  3.7D-02, -5.8D-01, -1.9D-04, r^2= 1.3D+01
   Bfn.  Coefficient  Atom+Function         Bfn.  Coefficient  Atom+Function  
  ----- ------------  ---------------      ----- ------------  ---------------
    96     10.739693   3 C  s               188     10.740804   5 C  s         
   104     -8.535206   3 C  px              196      8.539592   5 C  px        
   142     -7.529354   4 C  s                 5      6.832999   1 C  s         
   212      5.408882   5 C  d -2            258      5.293953   6 C  d -2      
   120     -5.249604   3 C  d -2            242     -5.129763   6 C  px        
 
 Vector   80  Occ=0.000000D+00  E= 3.716450D-01
              MO Center=  1.9D-02, -3.1D-01, -2.3D-04, r^2= 1.3D+01
   Bfn.  Coefficient  Atom+Function         Bfn.  Coefficient  Atom+Function  
  ----- ------------  ---------------      ----- ------------  ---------------
    97      9.601748   3 C  s               189     -9.602624   5 C  s         
    50      8.866539   2 C  s               234     -8.866881   6 C  s         
   279     -5.346788   7 H  s               371      5.344933  11 H  s         
    51     -5.317364   2 C  s               235      5.319166   6 C  s         
   357      5.219755  10 H  py              311     -5.095219   8 H  py        
 
 Vector   81  Occ=0.000000D+00  E= 3.819438D-01
              MO Center=  3.7D-02, -5.8D-01,  4.5D-07, r^2= 1.6D+01
   Bfn.  Coefficient  Atom+Function         Bfn.  Coefficient  Atom+Function  
  ----- ------------  ---------------      ----- ------------  ---------------
   166      9.099537   4 C  d -2            333      7.132845   9 H  px        
   150     -6.676188   4 C  px              216     -6.574844   5 C  d  2      
   124      6.123413   3 C  d  2            279      5.780294   7 H  s         
   371     -5.779972  11 H  s               310      5.083623   8 H  px        
   356      5.015020  10 H  px               96     -4.801338   3 C  s         
 
 Vector   82  Occ=0.000000D+00  E= 3.931835D-01
              MO Center= -3.0D-02,  4.7D-01,  1.9D-04, r^2= 1.5D+01
   Bfn.  Coefficient  Atom+Function         Bfn.  Coefficient  Atom+Function  
  ----- ------------  ---------------      ----- ------------  ---------------
    12     12.314403   1 C  px               51    -11.324438   2 C  s         
   235     11.323192   6 C  s                78     -9.061471   2 C  d  2      
   262      8.741989   6 C  d  2             15     -6.895474   1 C  px        
   216      6.642704   5 C  d  2            153     -5.850685   4 C  px        
   379     -5.859562  11 H  px              124     -5.766896   3 C  d  2      
 
 Vector   83  Occ=0.000000D+00  E= 3.958913D-01
              MO Center= -5.3D-02,  8.4D-01,  1.7D-04, r^2= 1.2D+01
   Bfn.  Coefficient  Atom+Function         Bfn.  Coefficient  Atom+Function  
  ----- ------------  ---------------      ----- ------------  ---------------
   152     -7.537602   4 C  pz              106      7.341091   3 C  pz        
   198      7.340949   5 C  pz               60     -6.476952   2 C  pz        
   244     -6.476883   6 C  pz              167     -6.321794   4 C  d -1      
   215      5.120858   5 C  d  1            123     -4.714523   3 C  d  1      
    14      4.570084   1 C  pz              259      4.021930   6 C  d -1      
 
 Vector   84  Occ=0.000000D+00  E= 4.016445D-01
              MO Center= -3.4D-02,  5.4D-01, -6.5D-04, r^2= 1.5D+01
   Bfn.  Coefficient  Atom+Function         Bfn.  Coefficient  Atom+Function  
  ----- ------------  ---------------      ----- ------------  ---------------
     5     52.763863   1 C  s                51    -20.448186   2 C  s         
   235    -20.452995   6 C  s                97    -17.545216   3 C  s         
   189    -17.545688   5 C  s               143     12.673519   4 C  s         
   142    -10.293079   4 C  s                 4     -9.738219   1 C  s         
    50     -7.838093   2 C  s               234     -7.837084   6 C  s         
 
 Vector   85  Occ=0.000000D+00  E= 4.055247D-01
              MO Center= -3.2D-03,  5.1D-02, -7.9D-05, r^2= 1.3D+01
   Bfn.  Coefficient  Atom+Function         Bfn.  Coefficient  Atom+Function  
  ----- ------------  ---------------      ----- ------------  ---------------
     5     31.760477   1 C  s               143     16.987717   4 C  s         
    51    -11.973867   2 C  s               235    -11.974220   6 C  s         
    96      9.890924   3 C  s               188      9.890851   5 C  s         
    97     -6.853236   3 C  s               189     -6.852840   5 C  s         
   262      6.810357   6 C  d  2             78      6.615163   2 C  d  2      
 
 Vector   86  Occ=0.000000D+00  E= 4.129238D-01
[...]
     Occ.   21 alpha a   ---  Virt.   38 alpha a    0.12034 X
     Occ.   13 beta  a   ---  Virt.   21 beta  a   -0.06951 X
     Occ.   15 beta  a   ---  Virt.   21 beta  a   -0.12866 X
     Occ.   19 beta  a   ---  Virt.   24 beta  a   -0.26711 X
     Occ.   19 beta  a   ---  Virt.   29 beta  a    0.06230 X
     Occ.   20 beta  a   ---  Virt.   22 beta  a    0.17712 X
  ----------------------------------------------------------------------------
  Root  27         a              0.251949301 a.u.                6.8559 eV 
  <S2> =   1.6622
  ----------------------------------------------------------------------------
     Transition Moments    X -0.00015   Y -0.00001   Z  0.24437
     Transition Moments   XX  0.00006  XY -0.00018  XZ -0.01041
     Transition Moments   YY  0.00011  YZ  0.16700  ZZ  0.00003
     Dipole Oscillator Strength                    0.0100303623
     Electric Quadrupole                           0.0000000024
     Magnetic Dipole                               0.0000000312
     Total Oscillator Strength                     0.0100303959
 
     Occ.   19 alpha a   ---  Virt.   26 alpha a    0.98227 X
     Occ.   19 alpha a   ---  Virt.   35 alpha a   -0.07092 X
     Occ.   19 alpha a   ---  Virt.   36 alpha a   -0.07381 X
     Occ.   20 alpha a   ---  Virt.   25 alpha a    0.11646 X
     Occ.   20 beta  a   ---  Virt.   26 beta  a    0.05032 X
  ----------------------------------------------------------------------------
  Root  28         a              0.252661026 a.u.                6.8753 eV 
  <S2> =   1.8937
  ----------------------------------------------------------------------------
     Transition Moments    X -0.00007   Y -0.00002   Z  0.00005
     Transition Moments   XX -0.00000  XY  0.00000  XZ -0.39395
     Transition Moments   YY -0.00007  YZ -0.02479  ZZ -0.00002
     Dipole Oscillator Strength                    0.0000000013
     Electric Quadrupole                           0.0000000134
     Magnetic Dipole                               0.0000000097
     Total Oscillator Strength                     0.0000000244
 
     Occ.   19 alpha a   ---  Virt.   25 alpha a    0.24353 X
     Occ.   20 alpha a   ---  Virt.   26 alpha a    0.96115 X
     Occ.   20 alpha a   ---  Virt.   35 alpha a   -0.06146 X
     Occ.   20 alpha a   ---  Virt.   36 alpha a   -0.06573 X
     Occ.   19 beta  a   ---  Virt.   26 beta  a   -0.06726 X
  ----------------------------------------------------------------------------
  Root  29         a              0.253984610 a.u.                6.9113 eV 
  <S2> =   1.6133
  ----------------------------------------------------------------------------
     Transition Moments    X  0.00004   Y -0.00002   Z  0.00001
     Transition Moments   XX -0.00002  XY  0.00004  XZ -0.49625
     Transition Moments   YY -0.00010  YZ -0.03126  ZZ -0.00003
     Dipole Oscillator Strength                    0.0000000003
     Electric Quadrupole                           0.0000000216
     Magnetic Dipole                               0.0000000111
     Total Oscillator Strength                     0.0000000329
 
     Occ.   20 alpha a   ---  Virt.   26 alpha a    0.07173 X
     Occ.   19 beta  a   ---  Virt.   26 beta  a    0.98513 X
     Occ.   19 beta  a   ---  Virt.   35 beta  a   -0.05763 X
     Occ.   19 beta  a   ---  Virt.   36 beta  a   -0.07418 X
     Occ.   20 beta  a   ---  Virt.   25 beta  a    0.09611 X
  ----------------------------------------------------------------------------
  Root  30         a              0.254756577 a.u.                6.9323 eV 
  <S2> =   0.7722
  ----------------------------------------------------------------------------
     Transition Moments    X  1.44322   Y  0.09076   Z -0.00002
     Transition Moments   XX  0.03040  XY -0.24121  XZ  0.00003
     Transition Moments   YY -0.03064  YZ -0.00002  ZZ -0.00002
     Dipole Oscillator Strength                    0.3551525170
     Electric Quadrupole                           0.0000000052
     Magnetic Dipole                               0.0000000437
     Total Oscillator Strength                     0.3551525659
 
     Occ.   19 alpha a   ---  Virt.   22 alpha a    0.36247 X
     Occ.   19 alpha a   ---  Virt.   22 alpha a   -0.05076 Y
     Occ.   20 alpha a   ---  Virt.   23 alpha a   -0.40671 X
     Occ.   20 alpha a   ---  Virt.   29 alpha a    0.13344 X
     Occ.   21 alpha a   ---  Virt.   25 alpha a   -0.08595 X
     Occ.   21 alpha a   ---  Virt.   27 alpha a    0.47379 X
     Occ.   13 beta  a   ---  Virt.   21 beta  a   -0.12488 X
     Occ.   15 beta  a   ---  Virt.   21 beta  a   -0.26224 X
     Occ.   19 beta  a   ---  Virt.   24 beta  a   -0.47471 X
     Occ.   19 beta  a   ---  Virt.   29 beta  a    0.13290 X
     Occ.   20 beta  a   ---  Virt.   22 beta  a    0.33278 X
     Occ.   20 beta  a   ---  Virt.   22 beta  a   -0.05367 Y
  ----------------------------------------------------------------------------
  Root  31         a              0.255931509 a.u.                6.9643 eV 
  <S2> =   0.8009
  ----------------------------------------------------------------------------
     Transition Moments    X -0.04261   Y  0.67937   Z  0.00000
     Transition Moments   XX  0.64086  XY -0.07752  XZ -0.00002
     Transition Moments   YY  1.86646  YZ  0.00003  ZZ  0.14081
     Dipole Oscillator Strength                    0.0790582388
     Electric Quadrupole                           0.0000000709
     Magnetic Dipole                               0.0000000000
     Total Oscillator Strength                     0.0790583097
 
     Occ.   19 alpha a   ---  Virt.   23 alpha a   -0.11927 X
     Occ.   20 alpha a   ---  Virt.   22 alpha a   -0.12454 X
     Occ.   21 alpha a   ---  Virt.   26 alpha a   -0.18719 X
     Occ.   21 alpha a   ---  Virt.   28 alpha a    0.90134 X
     Occ.   21 alpha a   ---  Virt.   30 alpha a    0.12983 X
     Occ.   21 alpha a   ---  Virt.   31 alpha a    0.16258 X
     Occ.   21 alpha a   ---  Virt.   48 alpha a   -0.05693 X
     Occ.   16 beta  a   ---  Virt.   21 beta  a   -0.19512 X
     Occ.   19 beta  a   ---  Virt.   22 beta  a   -0.11924 X
     Occ.   20 beta  a   ---  Virt.   24 beta  a   -0.11041 X
  ----------------------------------------------------------------------------
  Root  32         a              0.261425366 a.u.                7.1137 eV 
  <S2> =   0.7998
  ----------------------------------------------------------------------------
     Transition Moments    X  0.00001   Y -0.00001   Z  0.09659
     Transition Moments   XX -0.00001  XY -0.00001  XZ -0.04459
     Transition Moments   YY -0.00003  YZ  0.70757  ZZ  0.00000
     Dipole Oscillator Strength                    0.0016258701
     Electric Quadrupole                           0.0000000478
     Magnetic Dipole                               0.0000000341
     Total Oscillator Strength                     0.0016259520
 
     Occ.   21 alpha a   ---  Virt.   29 alpha a   -0.97950 X
     Occ.   21 alpha a   ---  Virt.   33 alpha a   -0.18056 X
  ----------------------------------------------------------------------------
  Root  33         a              0.265356660 a.u.                7.2207 eV 
  <S2> =   1.7804
  ----------------------------------------------------------------------------
     Transition Moments    X -0.00001   Y -0.00001   Z  0.00000
     Transition Moments   XX  0.00006  XY -0.00002  XZ -0.54634
     Transition Moments   YY  0.00003  YZ -0.03442  ZZ  0.00004
     Dipole Oscillator Strength                    0.0000000000
     Electric Quadrupole                           0.0000000298
     Magnetic Dipole                               0.0000000005
     Total Oscillator Strength                     0.0000000304
 
     Occ.   20 beta  a   ---  Virt.   27 beta  a   -0.99108 X
     Occ.   20 beta  a   ---  Virt.   38 beta  a    0.09646 X
  ----------------------------------------------------------------------------
  Root  34         a              0.267008974 a.u.                7.2657 eV 
  <S2> =   0.8198
  ----------------------------------------------------------------------------
     Transition Moments    X -0.07843   Y  1.24632   Z -0.00000
     Transition Moments   XX -0.12282  XY  0.03585  XZ -0.00001
     Transition Moments   YY -0.68998  YZ -0.00006  ZZ -0.06731
     Dipole Oscillator Strength                    0.2775927837
     Electric Quadrupole                           0.0000000122
     Magnetic Dipole                               0.0000000000
     Total Oscillator Strength                     0.2775927959
 
     Occ.   17 alpha a   ---  Virt.   23 alpha a    0.08716 X
     Occ.   19 alpha a   ---  Virt.   23 alpha a   -0.32138 X
     Occ.   19 alpha a   ---  Virt.   29 alpha a   -0.16357 X
     Occ.   20 alpha a   ---  Virt.   22 alpha a   -0.23345 X
     Occ.   21 alpha a   ---  Virt.   28 alpha a   -0.32703 X
     Occ.   21 alpha a   ---  Virt.   30 alpha a    0.35293 X
     Occ.   21 alpha a   ---  Virt.   31 alpha a   -0.06841 X
     Occ.   14 beta  a   ---  Virt.   21 beta  a    0.09684 X
     Occ.   16 beta  a   ---  Virt.   21 beta  a   -0.50691 X
     Occ.   19 beta  a   ---  Virt.   22 beta  a   -0.23444 X
     Occ.   20 beta  a   ---  Virt.   24 beta  a   -0.32415 X
     Occ.   20 beta  a   ---  Virt.   29 beta  a   -0.35105 X
  ----------------------------------------------------------------------------
  Root  35         a              0.270822044 a.u.                7.3694 eV 
  <S2> =   2.7173
  ----------------------------------------------------------------------------
     Transition Moments    X -0.00001   Y -0.00001   Z -0.00961
     Transition Moments   XX  0.00001  XY -0.00000  XZ  0.00859
     Transition Moments   YY  0.00002  YZ -0.13696  ZZ -0.00000
     Dipole Oscillator Strength                    0.0000166627
     Electric Quadrupole                           0.0000000020
     Magnetic Dipole                               0.0000000000
     Total Oscillator Strength                     0.0000166647
 
     Occ.   20 alpha a   ---  Virt.   27 alpha a    0.78304 X
     Occ.   20 alpha a   ---  Virt.   38 alpha a   -0.08674 X
     Occ.   19 beta  a   ---  Virt.   27 beta  a   -0.59495 X
     Occ.   19 beta  a   ---  Virt.   38 beta  a    0.06982 X
     Occ.   20 beta  a   ---  Virt.   28 beta  a   -0.05919 X
     Occ.   20 beta  a   ---  Virt.   30 beta  a   -0.06250 X
  ----------------------------------------------------------------------------
  Root  36         a              0.271133580 a.u.                7.3779 eV 
  <S2> =   2.7413
  ----------------------------------------------------------------------------
     Transition Moments    X -0.04853   Y -0.00304   Z  0.00000
     Transition Moments   XX -0.00351  XY  0.02809  XZ -0.00001
     Transition Moments   YY  0.00351  YZ  0.00004  ZZ  0.00001
     Dipole Oscillator Strength                    0.0004273398
     Electric Quadrupole                           0.0000000001
     Magnetic Dipole                               0.0000000019
     Total Oscillator Strength                     0.0004273417
 
     Occ.   17 alpha a   ---  Virt.   22 alpha a   -0.59970 X
     Occ.   17 alpha a   ---  Virt.   41 alpha a    0.05249 X
     Occ.   19 alpha a   ---  Virt.   32 alpha a    0.08371 X
     Occ.   20 alpha a   ---  Virt.   29 alpha a   -0.15313 X
     Occ.   20 alpha a   ---  Virt.   44 alpha a    0.22802 X
     Occ.   20 alpha a   ---  Virt.   47 alpha a   -0.17378 X
     Occ.   17 beta  a   ---  Virt.   22 beta  a    0.64595 X
     Occ.   17 beta  a   ---  Virt.   41 beta  a   -0.05441 X
     Occ.   19 beta  a   ---  Virt.   29 beta  a    0.09750 X
     Occ.   19 beta  a   ---  Virt.   44 beta  a   -0.20112 X
     Occ.   19 beta  a   ---  Virt.   47 beta  a    0.16665 X
     Occ.   20 beta  a   ---  Virt.   31 beta  a   -0.10185 X
  ----------------------------------------------------------------------------
  Root  37         a              0.271808610 a.u.                7.3963 eV 
  <S2> =   0.8184
  ----------------------------------------------------------------------------
     Transition Moments    X  0.00001   Y  0.00001   Z  0.02581
     Transition Moments   XX -0.00003  XY  0.00005  XZ -0.05531
     Transition Moments   YY -0.00005  YZ  0.87979  ZZ  0.00001
     Dipole Oscillator Strength                    0.0001207043
     Electric Quadrupole                           0.0000000831
     Magnetic Dipole                               0.0000000037
     Total Oscillator Strength                     0.0001207911
 
     Occ.   20 alpha a   ---  Virt.   27 alpha a   -0.59025 X
     Occ.   20 alpha a   ---  Virt.   38 alpha a    0.05060 X
     Occ.   19 beta  a   ---  Virt.   27 beta  a   -0.78728 X
     Occ.   19 beta  a   ---  Virt.   38 beta  a    0.07346 X
     Occ.   20 beta  a   ---  Virt.   28 beta  a    0.13555 X
  ----------------------------------------------------------------------------
  Root  38         a              0.272163168 a.u.                7.4059 eV 
  <S2> =   1.1315
  ----------------------------------------------------------------------------
     Transition Moments    X -0.02412   Y  0.38292   Z -0.00000
     Transition Moments   XX -0.98802  XY -0.11067  XZ  0.00001
     Transition Moments   YY  0.76167  YZ -0.00010  ZZ -0.22752
     Dipole Oscillator Strength                    0.0267092911
     Electric Quadrupole                           0.0000000839
     Magnetic Dipole                               0.0000000000
     Total Oscillator Strength                     0.0267093750
 
     Occ.   19 alpha a   ---  Virt.   23 alpha a   -0.05542 X
     Occ.   19 alpha a   ---  Virt.   29 alpha a    0.06655 X
     Occ.   21 alpha a   ---  Virt.   30 alpha a   -0.79974 X
     Occ.   21 alpha a   ---  Virt.   31 alpha a    0.19665 X
     Occ.   21 alpha a   ---  Virt.   35 alpha a   -0.06867 X
     Occ.   21 alpha a   ---  Virt.   40 alpha a    0.05691 X
     Occ.   14 beta  a   ---  Virt.   21 beta  a    0.05173 X
     Occ.   16 beta  a   ---  Virt.   21 beta  a   -0.12862 X
     Occ.   20 beta  a   ---  Virt.   24 beta  a   -0.06068 X
     Occ.   20 beta  a   ---  Virt.   29 beta  a   -0.52003 X
  ----------------------------------------------------------------------------
  Root  39         a              0.272245475 a.u.                7.4082 eV 
  <S2> =   1.7260
  ----------------------------------------------------------------------------
     Transition Moments    X -0.00001   Y  0.00001   Z  0.00002
     Transition Moments   XX  0.00005  XY -0.00002  XZ -0.54896
     Transition Moments   YY  0.00002  YZ -0.03425  ZZ  0.00003
     Dipole Oscillator Strength                    0.0000000001
     Electric Quadrupole                           0.0000000325
     Magnetic Dipole                               0.0000000013
     Total Oscillator Strength                     0.0000000339
 
     Occ.   19 alpha a   ---  Virt.   27 alpha a   -0.99037 X
     Occ.   19 alpha a   ---  Virt.   38 alpha a    0.09588 X
  ----------------------------------------------------------------------------
  Root  40         a              0.272450248 a.u.                7.4138 eV 
  <S2> =   1.9587
  ----------------------------------------------------------------------------
     Transition Moments    X -0.00001   Y  0.00004   Z  0.04123
     Transition Moments   XX  0.00001  XY  0.00002  XZ -0.02749
     Transition Moments   YY  0.00007  YZ  0.43880  ZZ  0.00001
     Dipole Oscillator Strength                    0.0003088197
     Electric Quadrupole                           0.0000000208
     Magnetic Dipole                               0.0000000060
     Total Oscillator Strength                     0.0003088465
 
     Occ.   19 alpha a   ---  Virt.   28 alpha a   -0.11629 X
     Occ.   20 alpha a   ---  Virt.   27 alpha a    0.13704 X
     Occ.   17 beta  a   ---  Virt.   21 beta  a   -0.05390 X
     Occ.   19 beta  a   ---  Virt.   27 beta  a    0.06744 X
     Occ.   20 beta  a   ---  Virt.   28 beta  a    0.96816 X
     Occ.   20 beta  a   ---  Virt.   30 beta  a    0.05801 X
     Occ.   20 beta  a   ---  Virt.   32 beta  a    0.07455 X
     Occ.   20 beta  a   ---  Virt.   43 beta  a    0.08067 X
 
              Target root =      1
          Target symmetry = none
      Ground state energy =   -231.646309360165
        Excitation energy =      0.105471062543
     Excited state energy =   -231.540838297622
 
  stored tddft:energy   -231.540838297622     

 Task  times  cpu:     2974.4s     wall:     3084.5s
 
 
                                NWChem Input Module
                                -------------------
 
 
 Summary of allocated global arrays
-----------------------------------
  No active global arrays



                         GA Statistics for process    0
                         ------------------------------

       create   destroy   get      put      acc     scatter   gather  read&inc
calls: 9544     9544     9.35e+06 4.29e+06 1.60e+06 5660        0      244     
number of processes/call 1.34e+00 1.71e+00 1.88e+00 0.00e+00 0.00e+00
bytes total:             8.06e+10 1.16e+10 8.84e+10 6.26e+04 0.00e+00 1.95e+03
bytes remote:            5.78e+10 1.09e+09 8.44e+10 0.00e+00 0.00e+00 0.00e+00
Max memory consumed for GA by this process: 205086464 bytes
 
MA_summarize_allocated_blocks: starting scan ...
MA_summarize_allocated_blocks: scan completed: 0 heap blocks, 0 stack blocks
MA usage statistics:

	allocation statistics:
					      heap	     stack
					      ----	     -----
	current number of blocks	         0	         0
	maximum number of blocks	        20	        52
	current total bytes		         0	         0
	maximum total bytes		   1165984	  68276424
	maximum total K-bytes		      1166	     68277
	maximum total M-bytes		         2	        69
 
 
                                     CITATION
                                     --------
                Please cite the following reference when publishing
                           results obtained with NWChem:
 
                 M. Valiev, E.J. Bylaska, N. Govind, K. Kowalski,
              T.P. Straatsma, H.J.J. van Dam, D. Wang, J. Nieplocha,
                        E. Apra, T.L. Windus, W.A. de Jong
                 "NWChem: a comprehensive and scalable open-source
                  solution for large scale molecular simulations"
                      Comput. Phys. Commun. 181, 1477 (2010)
                           doi:10.1016/j.cpc.2010.04.018
 
                                      AUTHORS
                                      -------
          E. Apra, E. J. Bylaska, W. A. de Jong, N. Govind, K. Kowalski,
       T. P. Straatsma, M. Valiev, H. J. J. van Dam, D. Wang, T. L. Windus,
        J. Hammond, J. Autschbach, K. Bhaskaran-Nair, J. Brabec, K. Lopata,
    S. A. Fischer, S. Krishnamoorthy, M. Jacquelin, W. Ma, M. Klemm, O. Villa,
      Y. Chen, V. Anisimov, F. Aquino, S. Hirata, M. T. Hackler, V. Konjkov,
            D. Mejia-Rodriguez, T. Risthaus, M. Malagoli, A. Marenich,
   A. Otero-de-la-Roza, J. Mullin, P. Nichols, R. Peverati, J. Pittner, Y. Zhao,
        P.-D. Fan, A. Fonari, M. J. Williamson, R. J. Harrison, J. R. Rehr,
      M. Dupuis, D. Silverstein, D. M. A. Smith, J. Nieplocha, V. Tipparaju,
    M. Krishnan, B. E. Van Kuiken, A. Vazquez-Mayagoitia, L. Jensen, M. Swart,
      Q. Wu, T. Van Voorhis, A. A. Auer, M. Nooijen, L. D. Crosby, E. Brown,
      G. Cisneros, G. I. Fann, H. Fruchtl, J. Garza, K. Hirao, R. A. Kendall,
      J. A. Nichols, K. Tsemekhman, K. Wolinski, J. Anchell, D. E. Bernholdt,
      P. Borowski, T. Clark, D. Clerc, H. Dachsel, M. J. O. Deegan, K. Dyall,
    D. Elwood, E. Glendening, M. Gutowski, A. C. Hess, J. Jaffe, B. G. Johnson,
     J. Ju, R. Kobayashi, R. Kutteh, Z. Lin, R. Littlefield, X. Long, B. Meng,
      T. Nakajima, S. Niu, L. Pollack, M. Rosing, K. Glaesemann, G. Sandrone,
      M. Stave, H. Taylor, G. Thomas, J. H. van Lenthe, A. T. Wong, Z. Zhang.

 Total times  cpu:     2974.4s     wall:     3095.5s
