 argument  1 = /storage/home/j/jbb5516/normalModes/mode815.46-p.nw
 


============================== echo of input deck ==============================
echo
start

title "None"

geometry
C    -0.08747224    1.38830409    0.00000011
C    -1.26735482    0.69112092    0.00045052
C    -1.16733630   -0.70470852    0.00032214
C     0.08291598   -1.31598916    0.00000010
C     1.24655610   -0.55261762   -0.00032217
C     1.17058620    0.84472727   -0.00045061
H    -2.23189055    1.18090100   -0.00286950
H    -2.06748412   -1.30603725   -0.00233693
H     0.15092404   -2.39537432   -0.00000018
H     2.21506130   -1.03620839    0.00233612
H     2.06601969    1.45169726    0.00286989
symmetry c1
end

basis spherical
 * library "aug-cc-pvtz"
end

dft
 direct
 mult 2
 iterations 500
 xc b3lyp
end

tddft
 nroots 40
 notriplet
 algorithm 1
end
task tddft energy
================================================================================


                                         
                                         
 
 
              Northwest Computational Chemistry Package (NWChem) 6.8
              ------------------------------------------------------
 
 
                    Environmental Molecular Sciences Laboratory
                       Pacific Northwest National Laboratory
                                Richland, WA 99352
 
                              Copyright (c) 1994-2017
                       Pacific Northwest National Laboratory
                            Battelle Memorial Institute
 
             NWChem is an open-source computational chemistry package
                        distributed under the terms of the
                      Educational Community License (ECL) 2.0
             A copy of the license is included with this distribution
                              in the LICENSE.TXT file
 
                                  ACKNOWLEDGMENT
                                  --------------

            This software and its documentation were developed at the
            EMSL at Pacific Northwest National Laboratory, a multiprogram
            national laboratory, operated for the U.S. Department of Energy
            by Battelle under Contract Number DE-AC05-76RL01830. Support
            for this work was provided by the Department of Energy Office
            of Biological and Environmental Research, Office of Basic
            Energy Sciences, and the Office of Advanced Scientific Computing.


           Job information
           ---------------

    hostname        = comp-sc-0201.acib.production.int.aci.ics.psu.edu
    program         = /gpfs/group/lxj18/default/jeffprograms/nwchem-6.8.1/bin/LINUX64/nwchem
    date            = Sun Sep 20 20:23:32 2020

    compiled        = Wed_Oct_03_14:08:39_2018
    source          = /gpfs/group/lxj18/default/jeffprograms/nwchem-6.8.1
    nwchem branch   = 6.8.1
    nwchem revision = v6.8-143-gdb0d964
    ga revision     = 5.6.5
    use scalapack   = F
    input           = /storage/home/j/jbb5516/normalModes/mode815.46-p.nw
    prefix          = mode815.46-p.
    data base       = ./mode815.46-p.db
    status          = startup
    nproc           =       20
    time left       =     -1s



           Memory information
           ------------------

    heap     =   13107198 doubles =    100.0 Mbytes
    stack    =   13107195 doubles =    100.0 Mbytes
    global   =   26214400 doubles =    200.0 Mbytes (distinct from heap & stack)
    total    =   52428793 doubles =    400.0 Mbytes
    verify   = yes
    hardfail = no 


           Directory information
           ---------------------
 
  0 permanent = .
  0 scratch   = .
 
 
 
 
                                NWChem Input Module
                                -------------------
 
 
                                       None
                                       ----

 Scaling coordinates for geometry "geometry" by  1.889725989
 (inverse scale =  0.529177249)

 Turning off AUTOSYM since
 SYMMETRY directive was detected!
 

          ------
          auto-z
          ------
 
 
                             Geometry "geometry" -> ""
                             -------------------------
 
 Output coordinates in angstroms (scale by  1.889725989 to convert to a.u.)
 
  No.       Tag          Charge          X              Y              Z
 ---- ---------------- ---------- -------------- -------------- --------------
    1 C                    6.0000    -0.08747224     1.38830409     0.00000011
    2 C                    6.0000    -1.26735482     0.69112092     0.00045052
    3 C                    6.0000    -1.16733630    -0.70470852     0.00032214
    4 C                    6.0000     0.08291598    -1.31598916     0.00000010
    5 C                    6.0000     1.24655610    -0.55261762    -0.00032217
    6 C                    6.0000     1.17058620     0.84472727    -0.00045061
    7 H                    1.0000    -2.23189055     1.18090100    -0.00286950
    8 H                    1.0000    -2.06748412    -1.30603725    -0.00233693
    9 H                    1.0000     0.15092404    -2.39537432    -0.00000018
   10 H                    1.0000     2.21506130    -1.03620839     0.00233612
   11 H                    1.0000     2.06601969     1.45169726     0.00286989
 
      Atomic Mass 
      ----------- 
 
      C                 12.000000
      H                  1.007825
 

 Effective nuclear repulsion energy (a.u.)     195.0639503980

            Nuclear Dipole moment (a.u.) 
            ----------------------------
        X                 Y               Z
 ---------------- ---------------- ----------------
    -0.0000000000     0.0000000000    -0.0000000000
 


                                Z-matrix (autoz)
                                -------- 

 Units are Angstrom for bonds and degrees for angles
 
      Type          Name      I     J     K     L     M      Value
      ----------- --------  ----- ----- ----- ----- ----- ----------
    1 Stretch                  1     2                       1.37047
    2 Stretch                  1     6                       1.37047
    3 Stretch                  2     3                       1.39941
    4 Stretch                  2     7                       1.08177
    5 Stretch                  3     4                       1.39169
    6 Stretch                  3     8                       1.08253
    7 Stretch                  4     5                       1.39169
    8 Stretch                  4     9                       1.08153
    9 Stretch                  5     6                       1.39941
   10 Stretch                  5    10                       1.08253
   11 Stretch                  6    11                       1.08177
   12 Bend                     1     2     3               116.47996
   13 Bend                     1     2     7               122.50032
   14 Bend                     1     6     5               116.47996
   15 Bend                     1     6    11               122.50035
   16 Bend                     2     1     6               126.05349
   17 Bend                     2     3     4               120.15374
   18 Bend                     2     3     8               119.64562
   19 Bend                     3     2     7               121.01929
   20 Bend                     3     4     5               120.67911
   21 Bend                     3     4     9               119.66043
   22 Bend                     4     3     8               120.20041
   23 Bend                     4     5     6               120.15373
   24 Bend                     4     5    10               120.20045
   25 Bend                     5     4     9               119.66046
   26 Bend                     5     6    11               121.01926
   27 Bend                     6     5    10               119.64559
   28 Torsion                  1     2     3     4           0.01138
   29 Torsion                  1     2     3     8        -179.81740
   30 Torsion                  1     6     5     4           0.01138
   31 Torsion                  1     6     5    10        -179.81743
   32 Torsion                  2     1     6     5          -0.00569
   33 Torsion                  2     1     6    11        -179.76989
   34 Torsion                  2     3     4     5          -0.00594
   35 Torsion                  2     3     4     9         179.99409
   36 Torsion                  3     2     1     6          -0.00565
   37 Torsion                  3     4     5     6          -0.00592
   38 Torsion                  3     4     5    10         179.82194
   39 Torsion                  4     3     2     7         179.77937
   40 Torsion                  4     5     6    11         179.77933
   41 Torsion                  5     4     3     8         179.82188
   42 Torsion                  6     1     2     7        -179.76991
   43 Torsion                  6     5     4     9         179.99405
   44 Torsion                  7     2     3     8          -0.04940
   45 Torsion                  8     3     4     9          -0.17809
   46 Torsion                  9     4     5    10          -0.17809
   47 Torsion                 10     5     6    11          -0.04948
 
 
            XYZ format geometry
            -------------------
    11
 geometry
 C                    -0.08747224     1.38830409     0.00000011
 C                    -1.26735482     0.69112092     0.00045052
 C                    -1.16733630    -0.70470852     0.00032214
 C                     0.08291598    -1.31598916     0.00000010
 C                     1.24655610    -0.55261762    -0.00032217
 C                     1.17058620     0.84472727    -0.00045061
 H                    -2.23189055     1.18090100    -0.00286950
 H                    -2.06748412    -1.30603725    -0.00233693
 H                     0.15092404    -2.39537432    -0.00000018
 H                     2.21506130    -1.03620839     0.00233612
 H                     2.06601969     1.45169726     0.00286989
 
 ==============================================================================
                                internuclear distances
 ------------------------------------------------------------------------------
       center one      |      center two      | atomic units |  angstroms
 ------------------------------------------------------------------------------
    2 C                |   1 C                |     2.58981  |     1.37047
    3 C                |   2 C                |     2.64450  |     1.39941
    4 C                |   3 C                |     2.62991  |     1.39169
    5 C                |   4 C                |     2.62991  |     1.39169
    6 C                |   1 C                |     2.58981  |     1.37047
    6 C                |   5 C                |     2.64450  |     1.39941
    7 H                |   2 C                |     2.04425  |     1.08177
    8 H                |   3 C                |     2.04568  |     1.08253
    9 H                |   4 C                |     2.04379  |     1.08153
   10 H                |   5 C                |     2.04568  |     1.08253
   11 H                |   6 C                |     2.04425  |     1.08177
 ------------------------------------------------------------------------------
                         number of included internuclear distances:         11
 ==============================================================================



 ==============================================================================
                                 internuclear angles
 ------------------------------------------------------------------------------
        center 1       |       center 2       |       center 3       |  degrees
 ------------------------------------------------------------------------------
    2 C                |   1 C                |   6 C                |   126.05
    1 C                |   2 C                |   3 C                |   116.48
    1 C                |   2 C                |   7 H                |   122.50
    3 C                |   2 C                |   7 H                |   121.02
    2 C                |   3 C                |   4 C                |   120.15
    2 C                |   3 C                |   8 H                |   119.65
    4 C                |   3 C                |   8 H                |   120.20
    3 C                |   4 C                |   5 C                |   120.68
    3 C                |   4 C                |   9 H                |   119.66
    5 C                |   4 C                |   9 H                |   119.66
    4 C                |   5 C                |   6 C                |   120.15
    4 C                |   5 C                |  10 H                |   120.20
    6 C                |   5 C                |  10 H                |   119.65
    1 C                |   6 C                |   5 C                |   116.48
    1 C                |   6 C                |  11 H                |   122.50
    5 C                |   6 C                |  11 H                |   121.02
 ------------------------------------------------------------------------------
                            number of included internuclear angles:         16
 ==============================================================================





 Summary of "ao basis" -> "" (spherical)
 ------------------------------------------------------------------------------
       Tag                 Description            Shells   Functions and Types
 ---------------- ------------------------------  ------  ---------------------
 *                        aug-cc-pvtz                 on all atoms 


 
                                 NWChem DFT Module
                                 -----------------
 
 
                                       None
 
 
                      Basis "ao basis" -> "ao basis" (spherical)
                      -----
  C (Carbon)
  ----------
            Exponent  Coefficients 
       -------------- ---------------------------------------------------------
  1 S  8.23600000E+03  0.000531
  1 S  1.23500000E+03  0.004108
  1 S  2.80800000E+02  0.021087
  1 S  7.92700000E+01  0.081853
  1 S  2.55900000E+01  0.234817
  1 S  8.99700000E+00  0.434401
  1 S  3.31900000E+00  0.346129
  1 S  3.64300000E-01 -0.008983
 
  2 S  8.23600000E+03 -0.000113
  2 S  1.23500000E+03 -0.000878
  2 S  2.80800000E+02 -0.004540
  2 S  7.92700000E+01 -0.018133
  2 S  2.55900000E+01 -0.055760
  2 S  8.99700000E+00 -0.126895
  2 S  3.31900000E+00 -0.170352
  2 S  3.64300000E-01  0.598684
 
  3 S  9.05900000E-01  1.000000
 
  4 S  1.28500000E-01  1.000000
 
  5 S  4.40200000E-02  1.000000
 
  6 P  1.87100000E+01  0.014031
  6 P  4.13300000E+00  0.086866
  6 P  1.20000000E+00  0.290216
 
  7 P  3.82700000E-01  1.000000
 
  8 P  1.20900000E-01  1.000000
 
  9 P  3.56900000E-02  1.000000
 
 10 D  1.09700000E+00  1.000000
 
 11 D  3.18000000E-01  1.000000
 
 12 D  1.00000000E-01  1.000000
 
 13 F  7.61000000E-01  1.000000
 
 14 F  2.68000000E-01  1.000000
 
  H (Hydrogen)
  ------------
            Exponent  Coefficients 
       -------------- ---------------------------------------------------------
  1 S  3.38700000E+01  0.006068
  1 S  5.09500000E+00  0.045308
  1 S  1.15900000E+00  0.202822
 
  2 S  3.25800000E-01  1.000000
 
  3 S  1.02700000E-01  1.000000
 
  4 S  2.52600000E-02  1.000000
 
  5 P  1.40700000E+00  1.000000
 
  6 P  3.88000000E-01  1.000000
 
  7 P  1.02000000E-01  1.000000
 
  8 D  1.05700000E+00  1.000000
 
  9 D  2.47000000E-01  1.000000
 


 Summary of "ao basis" -> "ao basis" (spherical)
 ------------------------------------------------------------------------------
       Tag                 Description            Shells   Functions and Types
 ---------------- ------------------------------  ------  ---------------------
 C                        aug-cc-pvtz               14       46   5s4p3d2f
 H                        aug-cc-pvtz                9       23   4s3p2d




 Summary of "ao basis" -> "ao basis" (spherical)
 ------------------------------------------------------------------------------
       Tag                 Description            Shells   Functions and Types
 ---------------- ------------------------------  ------  ---------------------
 C                        aug-cc-pvtz               14       46   5s4p3d2f
 H                        aug-cc-pvtz                9       23   4s3p2d


  Caching 1-el integrals 
 
            General Information
            -------------------
          SCF calculation type: DFT
          Wavefunction type:  spin polarized.
          No. of atoms     :    11
          No. of electrons :    41
           Alpha electrons :    21
            Beta electrons :    20
          Charge           :     0
          Spin multiplicity:     2
          Use of symmetry is: off; symmetry adaption is: off
          Maximum number of iterations: 500
          This is a Direct SCF calculation.
          AO basis - number of functions:   391
                     number of shells:   129
          Convergence on energy requested:  1.00D-06
          Convergence on density requested:  1.00D-05
          Convergence on gradient requested:  5.00D-04
 
              XC Information
              --------------
                         B3LYP Method XC Potential
                     Hartree-Fock (Exact) Exchange  0.200          
                        Slater Exchange Functional  0.800 local    
                    Becke 1988 Exchange Functional  0.720 non-local
              Lee-Yang-Parr Correlation Functional  0.810          
                  VWN I RPA Correlation Functional  0.190 local    
 
             Grid Information
             ----------------
          Grid used for XC integration:  medium    
          Radial quadrature: Mura-Knowles        
          Angular quadrature: Lebedev. 
          Tag              B.-S. Rad. Rad. Pts. Rad. Cut. Ang. Pts.
          ---              ---------- --------- --------- ---------
          C                   0.70       49          15.0       434
          H                   0.35       45          17.0       434
          Grid pruning is: on 
          Number of quadrature shells:   519
          Spatial weights used:  Erf1
 
          Convergence Information
          -----------------------
          Convergence aids based upon iterative change in 
          total energy or number of iterations. 
          Levelshifting, if invoked, occurs when the 
          HOMO/LUMO gap drops below (HL_TOL):  1.00D-02
          DIIS, if invoked, will attempt to extrapolate 
          using up to (NFOCK): 10 stored Fock matrices.

                    Damping( 0%)  Levelshifting(0.5)       DIIS
                  --------------- ------------------- ---------------
          dE  on:    start            ASAP                start   
          dE off:    2 iters        500 iters           500 iters 

 
      Screening Tolerance Information
      -------------------------------
          Density screening/tol_rho:  1.00D-10
          AO Gaussian exp screening on grid/accAOfunc:  14
          CD Gaussian exp screening on grid/accCDfunc:  20
          XC Gaussian exp screening on grid/accXCfunc:  20
          Schwarz screening/accCoul:  1.00D-08

 
 WARNING : Found     7 linear dependencies 
 S eigenvalue threshold:     1.00000E-05
 Smallest S eigenvalue :     1.46376E-06
 Largest  S eigenvalue :     7.76601E-06
 

 !! The overlap matrix has   7 vectors deemed linearly dependent with
    eigenvalues:
 1.46D-06 2.24D-06 2.83D-06 3.54D-06 5.28D-06 5.95D-06 7.77D-06
 
 
      Superposition of Atomic Density Guess
      -------------------------------------
 
 Sum of atomic energies:        -228.52307259
 
      Non-variational initial energy
      ------------------------------

 Total energy =    -232.667200
 1-e energy   =    -691.328428
 2-e energy   =     263.597278
 HOMO         =      -0.183325
 LUMO         =      -0.022269
 
   Time after variat. SCF:      9.9
   Time prior to 1st pass:      9.9

 Grid_pts file          = ./mode815.46-p.gridpts.00
 Record size in doubles =  12289        No. of grid_pts per rec  =   3070
 Max. records in memory =      6        Max. recs in file   = 218625501

 Grid integrated density:      40.999765897346
 Requested integration accuracy:   0.10E-05

           Memory utilization after 1st SCF pass: 
           Heap Space remaining (MW):       12.96            12961278
          Stack Space remaining (MW):       13.10            13103676

   convergence    iter        energy       DeltaE   RMS-Dens  Diis-err    time
 ---------------- ----- ----------------- --------- --------- ---------  ------
 d= 0,ls=0.0,diis     1   -231.5815904977 -4.27D+02  6.18D-02  2.09D-01    22.3
                                                     6.98D-02  1.96D-01
 d= 0,ls=0.0,diis     2   -231.6398331335 -5.82D-02  6.09D-02  1.22D-02    34.7
                                                     6.87D-02  1.25D-02
 d= 0,ls=0.0,diis     3   -231.6446105143 -4.78D-03  1.28D-03  3.44D-03    47.1
                                                     1.38D-03  3.50D-03
 d= 0,ls=0.0,diis     4   -231.6457674499 -1.16D-03  2.03D-04  1.12D-03    59.6
                                                     2.07D-04  1.06D-03
 d= 0,ls=0.0,diis     5   -231.6462856380 -5.18D-04  3.40D-05  4.24D-05    72.0
                                                     3.12D-05  4.84D-05
  Resetting Diis
 d= 0,ls=0.0,diis     6   -231.6463135157 -2.79D-05  1.11D-05  7.80D-06    84.4
                                                     1.06D-05  6.30D-06
 d= 0,ls=0.0,diis     7   -231.6463197084 -6.19D-06  7.31D-06  2.13D-06    96.9
                                                     6.52D-06  2.39D-06
 d= 0,ls=0.0,diis     8   -231.6463207849 -1.08D-06  3.05D-06  5.47D-06   109.3
                                                     2.70D-06  4.82D-06
 d= 0,ls=0.0,diis     9   -231.6463240718 -3.29D-06  3.73D-06  3.84D-07   121.7
                                                     3.31D-06  3.27D-07
 d= 0,ls=0.0,diis    10   -231.6463253747 -1.30D-06  2.14D-06  1.90D-07   134.2
                                                     2.45D-06  2.89D-07
 d= 0,ls=0.0,diis    11   -231.6463258097 -4.35D-07  5.94D-07  1.19D-08   146.6
                                                     5.14D-07  9.03D-09


         Total DFT energy =     -231.646325809704
      One electron energy =     -696.560872066265
           Coulomb energy =      304.259781796848
    Exchange-Corr. energy =      -34.409185938287
 Nuclear repulsion energy =      195.063950398000

 Numeric. integr. density =       40.999984402456

     Total iterative time =    136.8s


 
                    DFT Final Alpha Molecular Orbital Analysis
                    ------------------------------------------
 
 Vector    1  Occ=1.000000D+00  E=-1.020525D+01
              MO Center= -8.7D-02,  1.4D+00,  1.1D-07, r^2= 3.0D-02
   Bfn.  Coefficient  Atom+Function         Bfn.  Coefficient  Atom+Function  
  ----- ------------  ---------------      ----- ------------  ---------------
     1      0.984164   1 C  s                 3      0.058854   1 C  s         
    50     -0.038419   2 C  s               234     -0.038419   6 C  s         
   143      0.037876   4 C  s               279      0.037950   7 H  s         
   371      0.037948  11 H  s                51     -0.030670   2 C  s         
   235     -0.030669   6 C  s                47      0.025289   2 C  s         
 
 Vector    2  Occ=1.000000D+00  E=-1.019183D+01
              MO Center= -7.3D-01, -6.3D-01,  2.1D-04, r^2= 9.6D-01
   Bfn.  Coefficient  Atom+Function         Bfn.  Coefficient  Atom+Function  
  ----- ------------  ---------------      ----- ------------  ---------------
    93      0.874186   3 C  s               185      0.411882   5 C  s         
    47      0.176789   2 C  s               142     -0.092906   4 C  s         
   231      0.071977   6 C  s               139      0.055740   4 C  s         
    95      0.052268   3 C  s               302      0.049058   8 H  s         
   325      0.048090   9 H  s               234      0.036383   6 C  s         
 
 Vector    3  Occ=1.000000D+00  E=-1.019180D+01
              MO Center=  8.1D-01, -5.2D-01, -2.1D-04, r^2= 9.8D-01
   Bfn.  Coefficient  Atom+Function         Bfn.  Coefficient  Atom+Function  
  ----- ------------  ---------------      ----- ------------  ---------------
   185      0.872178   5 C  s                93     -0.407676   3 C  s         
   231      0.190371   6 C  s                47     -0.100652   2 C  s         
    50      0.062538   2 C  s               348      0.059048  10 H  s         
    51      0.052885   2 C  s               187      0.051929   5 C  s         
   279     -0.051669   7 H  s               234     -0.051084   6 C  s         
 
 Vector    4  Occ=1.000000D+00  E=-1.019034D+01
              MO Center= -1.1D+00,  6.4D-01,  4.0D-04, r^2= 3.9D-01
   Bfn.  Coefficient  Atom+Function         Bfn.  Coefficient  Atom+Function  
  ----- ------------  ---------------      ----- ------------  ---------------
    47      0.940281   2 C  s               231      0.221338   6 C  s         
    93     -0.191970   3 C  s               279      0.058557   7 H  s         
    49      0.054937   2 C  s               143      0.037883   4 C  s         
     4     -0.035236   1 C  s               185     -0.033125   5 C  s         
   142     -0.032005   4 C  s               189      0.031685   5 C  s         
 
 Vector    5  Occ=1.000000D+00  E=-1.019033D+01
              MO Center=  1.0D+00,  7.7D-01, -4.0D-04, r^2= 4.0D-01
   Bfn.  Coefficient  Atom+Function         Bfn.  Coefficient  Atom+Function  
  ----- ------------  ---------------      ----- ------------  ---------------
   231      0.938670   6 C  s                47     -0.214474   2 C  s         
   185     -0.197607   5 C  s                93      0.056935   3 C  s         
   371      0.056253  11 H  s               233      0.054440   6 C  s         
    97      0.045920   3 C  s                96      0.041035   3 C  s         
   189     -0.039669   5 C  s                12     -0.037461   1 C  px        
 
 Vector    6  Occ=1.000000D+00  E=-1.018432D+01
              MO Center=  8.3D-02, -1.3D+00,  9.9D-08, r^2= 3.5D-02
   Bfn.  Coefficient  Atom+Function         Bfn.  Coefficient  Atom+Function  
  ----- ------------  ---------------      ----- ------------  ---------------
   139      0.984285   4 C  s               141      0.057792   4 C  s         
    96     -0.045903   3 C  s               188     -0.045905   5 C  s         
   325      0.046003   9 H  s               143     -0.043504   4 C  s         
     4      0.040385   1 C  s                93     -0.039661   3 C  s         
   185     -0.039746   5 C  s               151      0.036014   4 C  py        
 
 Vector    7  Occ=1.000000D+00  E=-8.724604D-01
              MO Center= -6.3D-03,  9.9D-02,  1.4D-08, r^2= 2.0D+00
   Bfn.  Coefficient  Atom+Function         Bfn.  Coefficient  Atom+Function  
  ----- ------------  ---------------      ----- ------------  ---------------
     2      0.214063   1 C  s                48      0.202671   2 C  s         
   232      0.202654   6 C  s                94      0.195596   3 C  s         
   186      0.195580   5 C  s               140      0.188217   4 C  s         
    50      0.090243   2 C  s               234      0.090233   6 C  s         
    96      0.088094   3 C  s               188      0.088088   5 C  s         
 
 Vector    8  Occ=1.000000D+00  E=-7.627319D-01
              MO Center= -6.3D-03,  1.0D-01, -1.9D-08, r^2= 2.8D+00
   Bfn.  Coefficient  Atom+Function         Bfn.  Coefficient  Atom+Function  
  ----- ------------  ---------------      ----- ------------  ---------------
    48      0.250858   2 C  s               232     -0.250868   6 C  s         
    94      0.243819   3 C  s               186     -0.243827   5 C  s         
    50      0.146210   2 C  s               234     -0.146218   6 C  s         
   279     -0.129353   7 H  s               371      0.129357  11 H  s         
   150     -0.115511   4 C  px               97      0.110845   3 C  s         
 
 Vector    9  Occ=1.000000D+00  E=-7.537327D-01
              MO Center=  9.2D-03, -1.5D-01,  1.2D-08, r^2= 2.6D+00
   Bfn.  Coefficient  Atom+Function         Bfn.  Coefficient  Atom+Function  
  ----- ------------  ---------------      ----- ------------  ---------------
   140     -0.300918   4 C  s                 2      0.278554   1 C  s         
    94     -0.148871   3 C  s               186     -0.148864   5 C  s         
    48      0.148026   2 C  s               142     -0.147433   4 C  s         
   232      0.148017   6 C  s                96     -0.104906   3 C  s         
   188     -0.104904   5 C  s                 4      0.103013   1 C  s         
 
 Vector   10  Occ=1.000000D+00  E=-6.187396D-01
              MO Center= -2.5D-03,  3.9D-02, -1.9D-08, r^2= 3.6D+00
   Bfn.  Coefficient  Atom+Function         Bfn.  Coefficient  Atom+Function  
  ----- ------------  ---------------      ----- ------------  ---------------
    94     -0.208567   3 C  s               186      0.208561   5 C  s         
    48      0.199458   2 C  s               232     -0.199464   6 C  s         
    50      0.183358   2 C  s               234     -0.183366   6 C  s         
    96     -0.146994   3 C  s               188      0.146983   5 C  s         
     6     -0.127295   1 C  px              144      0.116927   4 C  px        
 
 Vector   11  Occ=1.000000D+00  E=-6.035488D-01
              MO Center=  5.4D-03, -8.7D-02, -2.3D-08, r^2= 3.5D+00
   Bfn.  Coefficient  Atom+Function         Bfn.  Coefficient  Atom+Function  
  ----- ------------  ---------------      ----- ------------  ---------------
   142      0.258345   4 C  s                 2      0.238938   1 C  s         
   140      0.218767   4 C  s                 4      0.198698   1 C  s         
    94     -0.138340   3 C  s               186     -0.138359   5 C  s         
    50     -0.122721   2 C  s               234     -0.122711   6 C  s         
    96     -0.119268   3 C  s               188     -0.119281   5 C  s         
 
 Vector   12  Occ=1.000000D+00  E=-5.277268D-01
              MO Center=  9.4D-03, -1.5D-01, -3.2D-08, r^2= 4.1D+00
   Bfn.  Coefficient  Atom+Function         Bfn.  Coefficient  Atom+Function  
  ----- ------------  ---------------      ----- ------------  ---------------
   148      0.159264   4 C  py              145      0.138838   4 C  py        
   324     -0.126841   9 H  s                55      0.105299   2 C  px        
   240     -0.104899   6 C  py              323     -0.100377   9 H  s         
   237     -0.096177   6 C  py              193     -0.094441   5 C  px        
   278     -0.094489   7 H  s               370     -0.094482  11 H  s         
 
 Vector   13  Occ=1.000000D+00  E=-4.645296D-01
              MO Center= -6.7D-03,  1.0D-01,  9.9D-09, r^2= 2.7D+00
   Bfn.  Coefficient  Atom+Function         Bfn.  Coefficient  Atom+Function  
  ----- ------------  ---------------      ----- ------------  ---------------
     9      0.189041   1 C  px                6      0.175362   1 C  px        
   147      0.172357   4 C  px              144      0.159073   4 C  px        
   239     -0.136869   6 C  px              194     -0.134751   5 C  py        
    56     -0.131374   2 C  py               55     -0.121398   2 C  px        
   191     -0.121433   5 C  py              236     -0.121874   6 C  px        
 
 Vector   14  Occ=1.000000D+00  E=-4.631574D-01
              MO Center=  1.0D-02, -1.6D-01, -1.1D-07, r^2= 4.8D+00
   Bfn.  Coefficient  Atom+Function         Bfn.  Coefficient  Atom+Function  
  ----- ------------  ---------------      ----- ------------  ---------------
     2      0.176558   1 C  s               301      0.136700   8 H  s         
   347      0.136676  10 H  s               140     -0.129403   4 C  s         
   193      0.127763   5 C  px              196      0.120322   5 C  px        
   101     -0.118803   3 C  px              190      0.118564   5 C  px        
    96      0.117516   3 C  s               104     -0.117398   3 C  px        
 
 Vector   15  Occ=1.000000D+00  E=-4.399780D-01
              MO Center= -1.3D-02,  2.1D-01, -1.8D-08, r^2= 4.0D+00
   Bfn.  Coefficient  Atom+Function         Bfn.  Coefficient  Atom+Function  
  ----- ------------  ---------------      ----- ------------  ---------------
   240      0.143965   6 C  py              102      0.139208   3 C  py        
   237      0.132905   6 C  py              278     -0.131461   7 H  s         
   370      0.131458  11 H  s                99      0.130192   3 C  py        
    55      0.129420   2 C  px               56     -0.128745   2 C  py        
   194     -0.126947   5 C  py               53     -0.119656   2 C  py        
 
 Vector   16  Occ=1.000000D+00  E=-3.990530D-01
              MO Center=  4.9D-02, -7.8D-01,  5.2D-08, r^2= 3.3D+00
   Bfn.  Coefficient  Atom+Function         Bfn.  Coefficient  Atom+Function  
  ----- ------------  ---------------      ----- ------------  ---------------
   148      0.233510   4 C  py              145      0.209191   4 C  py        
   324     -0.198591   9 H  s               151      0.172710   4 C  py        
   323     -0.154029   9 H  s                10      0.138646   1 C  py        
    13      0.120976   1 C  py              240      0.115208   6 C  py        
    56      0.109434   2 C  py                7      0.107929   1 C  py        
 
 Vector   17  Occ=1.000000D+00  E=-3.837003D-01
              MO Center= -7.7D-03,  1.2D-01,  4.5D-08, r^2= 2.7D+00
   Bfn.  Coefficient  Atom+Function         Bfn.  Coefficient  Atom+Function  
  ----- ------------  ---------------      ----- ------------  ---------------
    11      0.173449   1 C  pz               57      0.156408   2 C  pz        
   241      0.156396   6 C  pz              103      0.152229   3 C  pz        
   195      0.152217   5 C  pz              149      0.145891   4 C  pz        
     8      0.136823   1 C  pz               54      0.125782   2 C  pz        
   238      0.125772   6 C  pz              100      0.121730   3 C  pz        
 
 Vector   18  Occ=1.000000D+00  E=-3.659892D-01
              MO Center=  9.1D-03, -1.4D-01,  1.0D-08, r^2= 4.1D+00
   Bfn.  Coefficient  Atom+Function         Bfn.  Coefficient  Atom+Function  
  ----- ------------  ---------------      ----- ------------  ---------------
   147     -0.169331   4 C  px              101      0.165177   3 C  px        
   193      0.165097   5 C  px              144     -0.159883   4 C  px        
     9      0.149416   1 C  px               98      0.149455   3 C  px        
   190      0.149152   5 C  px                6      0.141598   1 C  px        
   196      0.135657   5 C  px              104      0.133536   3 C  px        
 
 Vector   19  Occ=1.000000D+00  E=-2.685136D-01
              MO Center=  9.1D-04, -1.5D-02, -2.6D-07, r^2= 3.0D+00
   Bfn.  Coefficient  Atom+Function         Bfn.  Coefficient  Atom+Function  
  ----- ------------  ---------------      ----- ------------  ---------------
    11      0.245300   1 C  pz              149     -0.238556   4 C  pz        
     8      0.192908   1 C  pz              146     -0.190710   4 C  pz        
    14      0.176331   1 C  pz              152     -0.171625   4 C  pz        
   103     -0.126597   3 C  pz              195     -0.126467   5 C  pz        
    57      0.114765   2 C  pz              241      0.114884   6 C  pz        
 
 Vector   20  Occ=1.000000D+00  E=-2.678726D-01
              MO Center= -3.8D-03,  6.1D-02,  2.9D-07, r^2= 3.1D+00
   Bfn.  Coefficient  Atom+Function         Bfn.  Coefficient  Atom+Function  
  ----- ------------  ---------------      ----- ------------  ---------------
   103      0.207430   3 C  pz              195     -0.207511   5 C  pz        
    57      0.203838   2 C  pz              241     -0.203774   6 C  pz        
   100      0.165264   3 C  pz              192     -0.165329   5 C  pz        
    54      0.163234   2 C  pz              238     -0.163183   6 C  pz        
    60      0.150522   2 C  pz              106      0.149942   3 C  pz        
 
 Vector   21  Occ=1.000000D+00  E=-2.484169D-01
              MO Center= -8.2D-02,  1.3D+00,  1.2D-07, r^2= 2.3D+00
   Bfn.  Coefficient  Atom+Function         Bfn.  Coefficient  Atom+Function  
  ----- ------------  ---------------      ----- ------------  ---------------
    10      0.385977   1 C  py               13      0.337674   1 C  py        
     5      0.335230   1 C  s                 7      0.299330   1 C  py        
     4      0.279440   1 C  s                 2      0.138345   1 C  s         
   243     -0.136196   6 C  py               59     -0.134140   2 C  py        
   102      0.112395   3 C  py              194      0.112406   5 C  py        
 
 Vector   22  Occ=0.000000D+00  E=-2.600798D-02
              MO Center= -4.3D-03,  6.8D-02, -4.7D-09, r^2= 4.3D+00
   Bfn.  Coefficient  Atom+Function         Bfn.  Coefficient  Atom+Function  
  ----- ------------  ---------------      ----- ------------  ---------------
   109     -0.320091   3 C  pz              201      0.320071   5 C  pz        
    63      0.314638   2 C  pz              247     -0.314625   6 C  pz        
    60      0.226969   2 C  pz              244     -0.226961   6 C  pz        
   106     -0.223734   3 C  pz              198      0.223722   5 C  pz        
    57      0.218765   2 C  pz              241     -0.218760   6 C  pz        
 
 Vector   23  Occ=0.000000D+00  E=-1.861324D-02
              MO Center=  3.1D-03, -5.0D-02, -5.6D-07, r^2= 4.3D+00
   Bfn.  Coefficient  Atom+Function         Bfn.  Coefficient  Atom+Function  
  ----- ------------  ---------------      ----- ------------  ---------------
   155      0.439588   4 C  pz               17      0.373553   1 C  pz        
   152      0.273939   4 C  pz               11      0.258952   1 C  pz        
   149      0.250782   4 C  pz               14      0.240481   1 C  pz        
   109     -0.226070   3 C  pz              201     -0.226080   5 C  pz        
     8      0.200624   1 C  pz               63     -0.198211   2 C  pz        
 
 Vector   24  Occ=0.000000D+00  E=-1.011005D-02
              MO Center=  6.0D-02, -9.5D-01, -1.2D-06, r^2= 2.0D+01
   Bfn.  Coefficient  Atom+Function         Bfn.  Coefficient  Atom+Function  
  ----- ------------  ---------------      ----- ------------  ---------------
     5      1.446653   1 C  s               279     -0.976458   7 H  s         
   371     -0.976455  11 H  s               326     -0.741578   9 H  s         
   303     -0.730324   8 H  s               349     -0.730190  10 H  s         
   302     -0.650232   8 H  s               348     -0.650241  10 H  s         
   325     -0.588324   9 H  s                51      0.561503   2 C  s         
 
 Vector   25  Occ=0.000000D+00  E= 4.381937D-03
              MO Center=  1.6D-02, -2.6D-01, -2.6D-07, r^2= 2.7D+01
   Bfn.  Coefficient  Atom+Function         Bfn.  Coefficient  Atom+Function  
  ----- ------------  ---------------      ----- ------------  ---------------
    51      2.731945   2 C  s               235     -2.731662   6 C  s         
    97      2.672515   3 C  s               189     -2.672522   5 C  s         
   303      1.996644   8 H  s               349     -1.996760  10 H  s         
    15      1.866770   1 C  px              153      1.807418   4 C  px        
   280      1.540122   7 H  s               372     -1.540002  11 H  s         
 
 Vector   26  Occ=0.000000D+00  E= 8.728800D-03
              MO Center=  4.6D-03, -7.3D-02,  5.4D-06, r^2= 2.7D+01
   Bfn.  Coefficient  Atom+Function         Bfn.  Coefficient  Atom+Function  
  ----- ------------  ---------------      ----- ------------  ---------------
   143      6.245455   4 C  s                51     -4.009763   2 C  s         
   235     -4.009941   6 C  s               326      2.932203   9 H  s         
     5      2.589686   1 C  s               280     -2.388390   7 H  s         
   372     -2.388392  11 H  s               154      1.947131   4 C  py        
   246      1.934055   6 C  py               62      1.829901   2 C  py        
 
 Vector   27  Occ=0.000000D+00  E= 2.670482D-02
              MO Center= -1.5D-02,  2.4D-01,  6.0D-08, r^2= 3.1D+01
   Bfn.  Coefficient  Atom+Function         Bfn.  Coefficient  Atom+Function  
  ----- ------------  ---------------      ----- ------------  ---------------
   280      3.932450   7 H  s               372     -3.932527  11 H  s         
    51      3.659837   2 C  s               235     -3.660217   6 C  s         
   303     -3.601942   8 H  s               349      3.601787  10 H  s         
    61      2.222182   2 C  px               97     -2.189943   3 C  s         
   189      2.189953   5 C  s               199     -2.040920   5 C  px        
 
 Vector   28  Occ=0.000000D+00  E= 3.221614D-02
              MO Center=  3.9D-02, -6.2D-01, -8.1D-06, r^2= 2.9D+01
   Bfn.  Coefficient  Atom+Function         Bfn.  Coefficient  Atom+Function  
  ----- ------------  ---------------      ----- ------------  ---------------
     5      6.396666   1 C  s               326     -4.998438   9 H  s         
   303      3.725483   8 H  s               349      3.725804  10 H  s         
    97     -2.179828   3 C  s               154     -2.176407   4 C  py        
   189     -2.179472   5 C  s               199     -1.647716   5 C  px        
   245      1.634028   6 C  px               61     -1.580529   2 C  px        
 
 Vector   29  Occ=0.000000D+00  E= 4.329312D-02
              MO Center=  1.4D-02, -2.2D-01, -7.2D-06, r^2= 1.3D+01
   Bfn.  Coefficient  Atom+Function         Bfn.  Coefficient  Atom+Function  
  ----- ------------  ---------------      ----- ------------  ---------------
   155      0.598816   4 C  pz               63      0.576381   2 C  pz        
   247      0.576340   6 C  pz               17     -0.260385   1 C  pz        
    51     -0.160586   2 C  s               235      0.160090   6 C  s         
    60     -0.154806   2 C  pz              244     -0.154828   6 C  pz        
    97     -0.133970   3 C  s               189      0.133783   5 C  s         
 
 Vector   30  Occ=0.000000D+00  E= 5.496329D-02
              MO Center=  9.4D-03, -1.5D-01,  5.1D-05, r^2= 1.5D+01
   Bfn.  Coefficient  Atom+Function         Bfn.  Coefficient  Atom+Function  
  ----- ------------  ---------------      ----- ------------  ---------------
     5     10.709338   1 C  s               143      5.282317   4 C  s         
    51     -4.488242   2 C  s               235     -4.488186   6 C  s         
   303     -2.801142   8 H  s               349     -2.801078  10 H  s         
   326      2.060517   9 H  s               199      2.006691   5 C  px        
    97     -1.951834   3 C  s               189     -1.951732   5 C  s         
 
 Vector   31  Occ=0.000000D+00  E= 6.334938D-02
              MO Center= -4.1D-02,  6.5D-01,  1.7D-04, r^2= 2.8D+01
   Bfn.  Coefficient  Atom+Function         Bfn.  Coefficient  Atom+Function  
  ----- ------------  ---------------      ----- ------------  ---------------
     5     24.375041   1 C  s                51     -9.852944   2 C  s         
   235     -9.852809   6 C  s               143      7.622266   4 C  s         
    97     -6.510577   3 C  s               189     -6.510514   5 C  s         
   326      5.864887   9 H  s               154      4.770715   4 C  py        
   303     -4.681778   8 H  s               349     -4.681927  10 H  s         
 
 Vector   32  Occ=0.000000D+00  E= 6.574606D-02
              MO Center=  1.6D-03, -2.5D-02,  9.3D-06, r^2= 1.8D+01
   Bfn.  Coefficient  Atom+Function         Bfn.  Coefficient  Atom+Function  
  ----- ------------  ---------------      ----- ------------  ---------------
   109      0.976527   3 C  pz              201     -0.976507   5 C  pz        
    63      0.770134   2 C  pz              247     -0.770104   6 C  pz        
   169     -0.676930   4 C  d  1             31     -0.583172   1 C  d  1      
   106      0.492300   3 C  pz              198     -0.492301   5 C  pz        
    60      0.488330   2 C  pz              244     -0.488312   6 C  pz        
 
 Vector   33  Occ=0.000000D+00  E= 6.826247D-02
              MO Center= -1.2D-02,  1.9D-01, -9.4D-05, r^2= 1.8D+01
   Bfn.  Coefficient  Atom+Function         Bfn.  Coefficient  Atom+Function  
  ----- ------------  ---------------      ----- ------------  ---------------
    63      1.024301   2 C  pz              247      1.024271   6 C  pz        
   109     -0.811973   3 C  pz              201     -0.811859   5 C  pz        
   155     -0.750692   4 C  pz               14      0.629604   1 C  pz        
   152     -0.617710   4 C  pz               17      0.458671   1 C  pz        
   213     -0.449594   5 C  d -1            121     -0.405770   3 C  d -1      
 
 Vector   34  Occ=0.000000D+00  E= 7.645768D-02
              MO Center=  9.2D-03, -1.6D-01, -7.7D-06, r^2= 3.4D+01
   Bfn.  Coefficient  Atom+Function         Bfn.  Coefficient  Atom+Function  
  ----- ------------  ---------------      ----- ------------  ---------------
    51     13.864880   2 C  s               235    -13.866819   6 C  s         
    97     12.409100   3 C  s               189    -12.409932   5 C  s         
    15      7.678055   1 C  px              153      7.708818   4 C  px        
   107      4.764448   3 C  px              303      4.691495   8 H  s         
   349     -4.690851  10 H  s               199      4.461420   5 C  px        
 
 Vector   35  Occ=0.000000D+00  E= 7.792183D-02
              MO Center=  2.1D-01, -3.3D+00,  1.8D-05, r^2= 2.1D+01
   Bfn.  Coefficient  Atom+Function         Bfn.  Coefficient  Atom+Function  
  ----- ------------  ---------------      ----- ------------  ---------------
   143     18.274611   4 C  s                51    -13.446843   2 C  s         
   235    -13.442490   6 C  s               326      7.026894   9 H  s         
    62      5.653974   2 C  py              246      5.677737   6 C  py        
   200      5.394765   5 C  py              154      5.274282   4 C  py        
   108      5.037687   3 C  py              279      4.190429   7 H  s         
 
 Vector   36  Occ=0.000000D+00  E= 8.155252D-02
              MO Center= -8.8D-02,  1.4D+00, -7.4D-06, r^2= 2.8D+01
   Bfn.  Coefficient  Atom+Function         Bfn.  Coefficient  Atom+Function  
  ----- ------------  ---------------      ----- ------------  ---------------
   143     20.710387   4 C  s                51     -8.944700   2 C  s         
   235     -8.947174   6 C  s               246      5.260401   6 C  py        
    62      5.166393   2 C  py              325     -4.965385   9 H  s         
   280     -4.564016   7 H  s               372     -4.564480  11 H  s         
   200      4.483033   5 C  py              326      4.499251   9 H  s         
 
 Vector   37  Occ=0.000000D+00  E= 8.317358D-02
              MO Center=  4.6D-02, -7.3D-01,  5.7D-07, r^2= 2.2D+01
   Bfn.  Coefficient  Atom+Function         Bfn.  Coefficient  Atom+Function  
  ----- ------------  ---------------      ----- ------------  ---------------
    97      4.941567   3 C  s               189     -4.941872   5 C  s         
    51     -3.130032   2 C  s               235      3.132485   6 C  s         
   108      2.795820   3 C  py              303      2.804060   8 H  s         
   349     -2.804082  10 H  s               200     -2.681936   5 C  py        
   153      2.603706   4 C  px               96      2.073018   3 C  s         
 
 Vector   38  Occ=0.000000D+00  E= 9.540144D-02
              MO Center= -5.5D-02,  8.8D-01,  2.3D-07, r^2= 3.1D+01
   Bfn.  Coefficient  Atom+Function         Bfn.  Coefficient  Atom+Function  
  ----- ------------  ---------------      ----- ------------  ---------------
    51     17.682751   2 C  s               235    -17.684428   6 C  s         
   280      7.217322   7 H  s               372     -7.217334  11 H  s         
    97     -6.906083   3 C  s               189      6.906339   5 C  s         
   108     -6.461440   3 C  py              303     -6.201694   8 H  s         
   349      6.201171  10 H  s               200      5.919111   5 C  py        
 
 Vector   39  Occ=0.000000D+00  E= 1.018011D-01
              MO Center= -7.1D-03,  1.1D-01, -4.8D-06, r^2= 1.9D+01
   Bfn.  Coefficient  Atom+Function         Bfn.  Coefficient  Atom+Function  
  ----- ------------  ---------------      ----- ------------  ---------------
    51     13.735550   2 C  s               235    -13.734600   6 C  s         
    97     10.882447   3 C  s               189    -10.882811   5 C  s         
    15     10.000331   1 C  px              153      9.716160   4 C  px        
   246     -6.096259   6 C  py              108     -6.023360   3 C  py        
   200      5.990196   5 C  py               62      5.909858   2 C  py        
 
 Vector   40  Occ=0.000000D+00  E= 1.064758D-01
              MO Center= -8.0D-03,  1.3D-01, -2.6D-06, r^2= 2.1D+01
   Bfn.  Coefficient  Atom+Function         Bfn.  Coefficient  Atom+Function  
  ----- ------------  ---------------      ----- ------------  ---------------
   143     18.275968   4 C  s                51     -9.937780   2 C  s         
   235     -9.937756   6 C  s                 5     -9.462096   1 C  s         
   107     -8.759187   3 C  px              199      7.978073   5 C  px        
   245     -7.043906   6 C  px              200      6.726494   5 C  py        
    61      6.488987   2 C  px              108      5.671791   3 C  py        
 
 Vector   41  Occ=0.000000D+00  E= 1.082036D-01
              MO Center= -1.0D-02,  1.6D-01, -4.7D-07, r^2= 2.2D+01
   Bfn.  Coefficient  Atom+Function         Bfn.  Coefficient  Atom+Function  
  ----- ------------  ---------------      ----- ------------  ---------------
    63      3.390959   2 C  pz              247     -3.391046   6 C  pz        
   109     -3.362343   3 C  pz              201      3.362790   5 C  pz        
    60      0.696770   2 C  pz              244     -0.696796   6 C  pz        
   106     -0.636620   3 C  pz              198      0.636717   5 C  pz        
    77     -0.380238   2 C  d  1            215      0.361169   5 C  d  1      
 
 Vector   42  Occ=0.000000D+00  E= 1.089658D-01
              MO Center=  3.0D-02, -4.7D-01, -4.9D-05, r^2= 2.1D+01
   Bfn.  Coefficient  Atom+Function         Bfn.  Coefficient  Atom+Function  
  ----- ------------  ---------------      ----- ------------  ---------------
   155      5.322289   4 C  pz              109     -3.443278   3 C  pz        
   201     -3.442894   5 C  pz               17      2.511147   1 C  pz        
   152      0.983592   4 C  pz              106     -0.603418   3 C  pz        
   198     -0.603354   5 C  pz              167      0.569469   4 C  d -1      
    14      0.504713   1 C  pz               63     -0.475397   2 C  pz        
 
 Vector   43  Occ=0.000000D+00  E= 1.094999D-01
              MO Center=  2.9D-02, -4.5D-01,  1.5D-05, r^2= 2.7D+01
   Bfn.  Coefficient  Atom+Function         Bfn.  Coefficient  Atom+Function  
  ----- ------------  ---------------      ----- ------------  ---------------
   326      7.669219   9 H  s               154      7.056561   4 C  py        
   303     -6.474472   8 H  s               349     -6.474816  10 H  s         
   143     -5.606132   4 C  s               108     -4.429782   3 C  py        
   200     -4.184223   5 C  py               62     -4.156269   2 C  py        
   246     -4.136824   6 C  py                4      3.925566   1 C  s         
 
 Vector   44  Occ=0.000000D+00  E= 1.178165D-01
              MO Center= -4.1D-02,  6.5D-01, -8.1D-05, r^2= 1.4D+01
   Bfn.  Coefficient  Atom+Function         Bfn.  Coefficient  Atom+Function  
  ----- ------------  ---------------      ----- ------------  ---------------
    17      6.879886   1 C  pz               63     -6.023167   2 C  pz        
   247     -6.023005   6 C  pz              109      5.053145   3 C  pz        
   201      5.052972   5 C  pz              155     -4.823463   4 C  pz        
    14      1.235813   1 C  pz               60     -1.020557   2 C  pz        
   244     -1.020521   6 C  pz              106      0.892349   3 C  pz        
 
 Vector   45  Occ=0.000000D+00  E= 1.264080D-01
              MO Center= -1.8D-02,  2.9D-01,  1.5D-06, r^2= 2.5D+01
   Bfn.  Coefficient  Atom+Function         Bfn.  Coefficient  Atom+Function  
  ----- ------------  ---------------      ----- ------------  ---------------
    51      7.588263   2 C  s               235     -7.588218   6 C  s         
   107      7.204056   3 C  px              199      7.126928   5 C  px        
   245     -7.037144   6 C  px               61     -6.926850   2 C  px        
    15      6.444024   1 C  px               97     -6.193046   3 C  s         
   189      6.193112   5 C  s               153     -5.818345   4 C  px        
 
 Vector   46  Occ=0.000000D+00  E= 1.274499D-01
              MO Center= -1.2D-02,  1.9D-01,  1.2D-05, r^2= 2.6D+01
   Bfn.  Coefficient  Atom+Function         Bfn.  Coefficient  Atom+Function  
  ----- ------------  ---------------      ----- ------------  ---------------
   154     -8.032128   4 C  py               16      7.424948   1 C  py        
   108      6.889058   3 C  py               62     -6.576346   2 C  py        
   200      6.571213   5 C  py              246     -6.383473   6 C  py        
   326     -4.051496   9 H  s                 5      3.565253   1 C  s         
   303      3.164664   8 H  s               349      3.165013  10 H  s         
 
 Vector   47  Occ=0.000000D+00  E= 1.609551D-01
              MO Center= -8.5D-03,  1.4D-01,  1.0D-04, r^2= 1.7D+01
   Bfn.  Coefficient  Atom+Function         Bfn.  Coefficient  Atom+Function  
  ----- ------------  ---------------      ----- ------------  ---------------
    17      8.192826   1 C  pz               63     -8.004450   2 C  pz        
   247     -8.004550   6 C  pz              155     -7.856636   4 C  pz        
   109      7.771295   3 C  pz              201      7.771389   5 C  pz        
    60     -1.191964   2 C  pz              106      1.192809   3 C  pz        
   198      1.192852   5 C  pz              244     -1.191981   6 C  pz        
 
 Vector   48  Occ=0.000000D+00  E= 1.660216D-01
              MO Center= -8.9D-02,  1.4D+00, -1.6D-04, r^2= 2.2D+01
   Bfn.  Coefficient  Atom+Function         Bfn.  Coefficient  Atom+Function  
  ----- ------------  ---------------      ----- ------------  ---------------
     5     59.211741   1 C  s                51    -25.981717   2 C  s         
   143     25.964501   4 C  s               235    -25.982657   6 C  s         
    97    -14.417800   3 C  s               189    -14.417017   5 C  s         
   154      7.428903   4 C  py              245      6.814243   6 C  px        
    61     -6.399411   2 C  px              326      6.156441   9 H  s         
 
 Vector   49  Occ=0.000000D+00  E= 1.754197D-01
              MO Center=  2.5D-02, -3.9D-01,  4.0D-05, r^2= 1.1D+01
   Bfn.  Coefficient  Atom+Function         Bfn.  Coefficient  Atom+Function  
  ----- ------------  ---------------      ----- ------------  ---------------
   335      1.104487   9 H  pz              312      1.079188   8 H  pz        
   358      1.079135  10 H  pz              289      0.973158   7 H  pz        
   381      0.973113  11 H  pz               17      0.959712   1 C  pz        
    63     -0.885199   2 C  pz              247     -0.885168   6 C  pz        
   106     -0.842969   3 C  pz              198     -0.842912   5 C  pz        
 
 Vector   50  Occ=0.000000D+00  E= 1.864246D-01
              MO Center=  3.4D-02, -5.5D-01, -6.4D-06, r^2= 1.5D+01
   Bfn.  Coefficient  Atom+Function         Bfn.  Coefficient  Atom+Function  
  ----- ------------  ---------------      ----- ------------  ---------------
     5     15.509550   1 C  s                97     -7.273505   3 C  s         
   189     -7.273024   5 C  s                51     -4.474971   2 C  s         
   235     -4.474728   6 C  s               325      4.425646   9 H  s         
    62     -4.045209   2 C  py              154      3.980582   4 C  py        
   246     -3.823179   6 C  py              302      3.261119   8 H  s         
 
 Vector   51  Occ=0.000000D+00  E= 1.980397D-01
              MO Center= -3.0D-02,  4.7D-01,  1.7D-05, r^2= 2.3D+01
   Bfn.  Coefficient  Atom+Function         Bfn.  Coefficient  Atom+Function  
  ----- ------------  ---------------      ----- ------------  ---------------
    51     44.603231   2 C  s               235    -44.593263   6 C  s         
    97     25.196889   3 C  s               189    -25.199574   5 C  s         
    15     18.495986   1 C  px              153     17.066136   4 C  px        
   302    -14.009598   8 H  s               348     14.010499  10 H  s         
   200      9.226290   5 C  py              108     -8.512799   3 C  py        
 
 Vector   52  Occ=0.000000D+00  E= 1.984415D-01
              MO Center=  4.6D-02, -7.3D-01, -1.1D-04, r^2= 2.3D+01
   Bfn.  Coefficient  Atom+Function         Bfn.  Coefficient  Atom+Function  
  ----- ------------  ---------------      ----- ------------  ---------------
   143     61.320456   4 C  s                51    -34.527426   2 C  s         
   235    -34.540277   6 C  s               325    -16.863435   9 H  s         
    62     14.721337   2 C  py              246     14.449054   6 C  py        
   200     13.769282   5 C  py              108     12.558268   3 C  py        
     5    -11.579619   1 C  s               279     11.179981   7 H  s         
 
 Vector   53  Occ=0.000000D+00  E= 2.154380D-01
              MO Center=  8.8D-02, -1.4D+00,  2.0D-06, r^2= 1.5D+01
   Bfn.  Coefficient  Atom+Function         Bfn.  Coefficient  Atom+Function  
  ----- ------------  ---------------      ----- ------------  ---------------
    97     13.860100   3 C  s               189    -13.859611   5 C  s         
    96      6.548533   3 C  s               188     -6.548613   5 C  s         
   153      6.322922   4 C  px              279     -5.135930   7 H  s         
   371      5.135684  11 H  s               303      4.737261   8 H  s         
   349     -4.737001  10 H  s               246     -4.492489   6 C  py        
 
 Vector   54  Occ=0.000000D+00  E= 2.182735D-01
              MO Center=  1.8D-02, -2.8D-01, -5.2D-05, r^2= 1.5D+01
   Bfn.  Coefficient  Atom+Function         Bfn.  Coefficient  Atom+Function  
  ----- ------------  ---------------      ----- ------------  ---------------
   143     25.784501   4 C  s                51    -17.780887   2 C  s         
   235    -17.792597   6 C  s                 5     15.976844   1 C  s         
    16     -6.446826   1 C  py              325     -6.048425   9 H  s         
    62      4.840096   2 C  py              246      4.722724   6 C  py        
   279      3.739855   7 H  s               371      3.740439  11 H  s         
 
 Vector   55  Occ=0.000000D+00  E= 2.191127D-01
              MO Center=  5.3D-03, -8.4D-02,  1.8D-05, r^2= 1.5D+01
   Bfn.  Coefficient  Atom+Function         Bfn.  Coefficient  Atom+Function  
  ----- ------------  ---------------      ----- ------------  ---------------
    51     19.806468   2 C  s               235    -19.796886   6 C  s         
   108     -8.471560   3 C  py              200      8.113310   5 C  py        
    15      7.529898   1 C  px              302     -6.934504   8 H  s         
   348      6.934538  10 H  s               153      6.305364   4 C  px        
   246     -4.034593   6 C  py               62      3.898469   2 C  py        
 
 Vector   56  Occ=0.000000D+00  E= 2.301185D-01
              MO Center= -1.8D-02,  2.9D-01, -8.1D-06, r^2= 1.8D+01
   Bfn.  Coefficient  Atom+Function         Bfn.  Coefficient  Atom+Function  
  ----- ------------  ---------------      ----- ------------  ---------------
   199      4.914061   5 C  px              107      4.647878   3 C  px        
   153     -3.564851   4 C  px               50     -3.271234   2 C  s         
   234      3.270840   6 C  s               303      3.159262   8 H  s         
   349     -3.158592  10 H  s                15     -2.626339   1 C  px        
   108      2.424277   3 C  py               59      1.953283   2 C  py        
 
 Vector   57  Occ=0.000000D+00  E= 2.311968D-01
              MO Center= -5.5D-05,  1.0D-03, -2.3D-05, r^2= 1.6D+01
   Bfn.  Coefficient  Atom+Function         Bfn.  Coefficient  Atom+Function  
  ----- ------------  ---------------      ----- ------------  ---------------
   106      2.142238   3 C  pz              198     -2.142253   5 C  pz        
    60      2.046638   2 C  pz              244     -2.046593   6 C  pz        
   312     -1.817806   8 H  pz              358      1.817852  10 H  pz        
   289     -1.720195   7 H  pz              381      1.720154  11 H  pz        
   169     -1.379486   4 C  d  1             31     -1.246699   1 C  d  1      
 
 Vector   58  Occ=0.000000D+00  E= 2.354328D-01
              MO Center= -1.3D-02,  2.1D-01, -5.5D-05, r^2= 1.6D+01
   Bfn.  Coefficient  Atom+Function         Bfn.  Coefficient  Atom+Function  
  ----- ------------  ---------------      ----- ------------  ---------------
   143     14.934547   4 C  s                51    -10.475850   2 C  s         
   235    -10.466757   6 C  s               107     -8.189033   3 C  px        
   199      7.760142   5 C  px               61      5.430261   2 C  px        
   245     -5.308831   6 C  px              303     -4.418211   8 H  s         
   349     -4.419751  10 H  s                 5      4.072001   1 C  s         
 
 Vector   59  Occ=0.000000D+00  E= 2.365036D-01
              MO Center= -4.5D-03,  7.4D-02, -3.4D-06, r^2= 1.7D+01
   Bfn.  Coefficient  Atom+Function         Bfn.  Coefficient  Atom+Function  
  ----- ------------  ---------------      ----- ------------  ---------------
    97    -33.169783   3 C  s               189     33.170241   5 C  s         
    51     31.540088   2 C  s               235    -31.543827   6 C  s         
    96    -14.384265   3 C  s               188     14.383697   5 C  s         
   279     10.795357   7 H  s               371    -10.794375  11 H  s         
   302    -10.655176   8 H  s               348     10.655006  10 H  s         
 
 Vector   60  Occ=0.000000D+00  E= 2.434524D-01
              MO Center=  2.7D-03, -4.3D-02,  2.1D-04, r^2= 1.5D+01
   Bfn.  Coefficient  Atom+Function         Bfn.  Coefficient  Atom+Function  
  ----- ------------  ---------------      ----- ------------  ---------------
   152      3.413786   4 C  pz               14     -3.025951   1 C  pz        
   289      2.170835   7 H  pz              381      2.170851  11 H  pz        
   335     -2.124644   9 H  pz              261      2.001884   6 C  d  1      
    77     -1.987221   2 C  d  1             63     -1.598124   2 C  pz        
   247     -1.598053   6 C  pz              155      1.369720   4 C  pz        
 
 Vector   61  Occ=0.000000D+00  E= 2.594979D-01
              MO Center=  3.8D-02, -6.0D-01,  2.0D-05, r^2= 1.7D+01
   Bfn.  Coefficient  Atom+Function         Bfn.  Coefficient  Atom+Function  
  ----- ------------  ---------------      ----- ------------  ---------------
     5      8.705570   1 C  s               108     -6.643570   3 C  py        
   200     -6.054066   5 C  py              303     -5.178036   8 H  s         
   349     -5.177974  10 H  s               199      5.076966   5 C  px        
   197     -4.838256   5 C  py              143     -4.805424   4 C  s         
   105     -4.736430   3 C  py              154      4.356756   4 C  py        
 
 Vector   62  Occ=0.000000D+00  E= 2.620258D-01
              MO Center=  6.8D-02, -1.1D+00,  1.7D-05, r^2= 1.7D+01
   Bfn.  Coefficient  Atom+Function         Bfn.  Coefficient  Atom+Function  
  ----- ------------  ---------------      ----- ------------  ---------------
     5     18.962610   1 C  s               154     15.381366   4 C  py        
   143     15.152441   4 C  s                51    -14.562138   2 C  s         
   235    -14.563353   6 C  s               326      9.187896   9 H  s         
     4      6.019685   1 C  s               108     -4.778297   3 C  py        
    97     -4.661438   3 C  s               189     -4.660051   5 C  s         
 
 Vector   63  Occ=0.000000D+00  E= 2.676744D-01
              MO Center= -2.7D-02,  4.3D-01, -4.0D-07, r^2= 2.0D+01
   Bfn.  Coefficient  Atom+Function         Bfn.  Coefficient  Atom+Function  
  ----- ------------  ---------------      ----- ------------  ---------------
    51     20.194814   2 C  s               235    -20.194577   6 C  s         
    97    -11.909692   3 C  s               189     11.910059   5 C  s         
    61     11.014729   2 C  px              245     10.263779   6 C  px        
    96     -8.754015   3 C  s               188      8.754188   5 C  s         
   279      8.762947   7 H  s               371     -8.763189  11 H  s         
 
 Vector   64  Occ=0.000000D+00  E= 2.747979D-01
              MO Center= -1.5D-03,  2.3D-02, -5.8D-06, r^2= 1.4D+01
   Bfn.  Coefficient  Atom+Function         Bfn.  Coefficient  Atom+Function  
  ----- ------------  ---------------      ----- ------------  ---------------
   143      8.950079   4 C  s                 5      8.703366   1 C  s         
   154      5.768124   4 C  py              279     -5.654976   7 H  s         
   371     -5.654567  11 H  s               302     -4.649025   8 H  s         
   348     -4.648613  10 H  s               325     -4.357539   9 H  s         
    16     -4.033287   1 C  py              246      3.262513   6 C  py        
 
 Vector   65  Occ=0.000000D+00  E= 2.829800D-01
              MO Center= -1.2D-02,  1.8D-01, -2.9D-06, r^2= 1.6D+01
   Bfn.  Coefficient  Atom+Function         Bfn.  Coefficient  Atom+Function  
  ----- ------------  ---------------      ----- ------------  ---------------
    12      9.529525   1 C  px               97      8.895718   3 C  s         
   189     -8.895754   5 C  s               302      8.099518   8 H  s         
   348     -8.099113  10 H  s                51     -8.021828   2 C  s         
   235      8.021290   6 C  s               199      7.632673   5 C  px        
   107      7.160546   3 C  px              150      6.193341   4 C  px        
 
 Vector   66  Occ=0.000000D+00  E= 2.954375D-01
              MO Center= -3.3D-03,  5.2D-02,  4.5D-06, r^2= 1.6D+01
   Bfn.  Coefficient  Atom+Function         Bfn.  Coefficient  Atom+Function  
  ----- ------------  ---------------      ----- ------------  ---------------
    63      3.201125   2 C  pz              109     -3.188418   3 C  pz        
   201      3.188017   5 C  pz              247     -3.200894   6 C  pz        
   289     -2.279300   7 H  pz              381      2.279328  11 H  pz        
    60      2.256519   2 C  pz              244     -2.256512   6 C  pz        
   312      2.261597   8 H  pz              358     -2.261496  10 H  pz        
 
 Vector   67  Occ=0.000000D+00  E= 2.962828D-01
              MO Center= -6.0D-02,  9.6D-01, -1.2D-05, r^2= 1.4D+01
   Bfn.  Coefficient  Atom+Function         Bfn.  Coefficient  Atom+Function  
  ----- ------------  ---------------      ----- ------------  ---------------
     4     10.428470   1 C  s                59     -5.742579   2 C  py        
   243     -5.633803   6 C  py                5      5.526750   1 C  s         
   105     -5.528979   3 C  py              197     -5.140520   5 C  py        
    16      4.275783   1 C  py              279     -4.187342   7 H  s         
   371     -4.187093  11 H  s                13      3.914688   1 C  py        
 
 Vector   68  Occ=0.000000D+00  E= 3.080396D-01
              MO Center=  1.7D-02, -2.7D-01,  2.6D-05, r^2= 1.5D+01
   Bfn.  Coefficient  Atom+Function         Bfn.  Coefficient  Atom+Function  
  ----- ------------  ---------------      ----- ------------  ---------------
   155      5.178030   4 C  pz               14      4.363395   1 C  pz        
   109     -3.739407   3 C  pz              201     -3.739548   5 C  pz        
   335     -2.710437   9 H  pz               60     -2.049489   2 C  pz        
   244     -2.049380   6 C  pz              152      1.852465   4 C  pz        
    17      1.841755   1 C  pz               29     -1.719276   1 C  d -1      
 
 Vector   69  Occ=0.000000D+00  E= 3.150359D-01
              MO Center=  4.6D-03, -7.3D-02, -4.0D-08, r^2= 9.1D+00
   Bfn.  Coefficient  Atom+Function         Bfn.  Coefficient  Atom+Function  
  ----- ------------  ---------------      ----- ------------  ---------------
   261      1.252147   6 C  d  1             77      1.132491   2 C  d  1      
   169     -1.083674   4 C  d  1             75     -1.023167   2 C  d -1      
   259      0.872995   6 C  d -1            289     -0.720599   7 H  pz        
   381      0.720594  11 H  pz                5      0.696376   1 C  s         
    31      0.633916   1 C  d  1              4     -0.486521   1 C  s         
 
 Vector   70  Occ=0.000000D+00  E= 3.284739D-01
              MO Center=  3.9D-02, -6.2D-01, -3.7D-05, r^2= 1.5D+01
   Bfn.  Coefficient  Atom+Function         Bfn.  Coefficient  Atom+Function  
  ----- ------------  ---------------      ----- ------------  ---------------
   142     12.147242   4 C  s                96      8.715252   3 C  s         
   188      8.715404   5 C  s               151     -6.835868   4 C  py        
   325     -5.843393   9 H  s                 4     -5.234427   1 C  s         
   334     -5.006103   9 H  py                5      4.899771   1 C  s         
   302     -4.389157   8 H  s               348     -4.388593  10 H  s         
 
 Vector   71  Occ=0.000000D+00  E= 3.347583D-01
              MO Center= -1.6D-03,  2.5D-02,  2.9D-05, r^2= 7.7D+00
   Bfn.  Coefficient  Atom+Function         Bfn.  Coefficient  Atom+Function  
  ----- ------------  ---------------      ----- ------------  ---------------
   289      2.029007   7 H  pz              381      2.029155  11 H  pz        
   335      1.839503   9 H  pz               14     -1.772833   1 C  pz        
   155     -1.702754   4 C  pz               63     -1.544664   2 C  pz        
   247     -1.544681   6 C  pz               77     -1.512012   2 C  d  1      
   261      1.411902   6 C  d  1            106     -1.285578   3 C  pz        
 
 Vector   72  Occ=0.000000D+00  E= 3.433041D-01
              MO Center=  2.4D-02, -3.8D-01, -2.8D-05, r^2= 1.2D+01
   Bfn.  Coefficient  Atom+Function         Bfn.  Coefficient  Atom+Function  
  ----- ------------  ---------------      ----- ------------  ---------------
   169      3.281945   4 C  d  1             31      2.696217   1 C  d  1      
   312     -2.471363   8 H  pz              358      2.470956  10 H  pz        
   143     -2.248564   4 C  s               123      2.176093   3 C  d  1      
   215      2.135515   5 C  d  1            106     -1.790703   3 C  pz        
   198      1.790764   5 C  pz              289     -1.426208   7 H  pz        
 
 Vector   73  Occ=0.000000D+00  E= 3.449342D-01
              MO Center= -3.5D-02,  5.5D-01, -2.3D-05, r^2= 1.2D+01
   Bfn.  Coefficient  Atom+Function         Bfn.  Coefficient  Atom+Function  
  ----- ------------  ---------------      ----- ------------  ---------------
   143     23.599539   4 C  s               325    -12.971040   9 H  s         
   279     11.873321   7 H  s               371     11.876397  11 H  s         
    51    -11.695075   2 C  s               235    -11.702702   6 C  s         
     5     -7.716858   1 C  s               197     -6.887921   5 C  py        
   105     -6.769916   3 C  py              243     -5.997871   6 C  py        
 
 Vector   74  Occ=0.000000D+00  E= 3.478160D-01
              MO Center=  9.9D-03, -1.6D-01,  1.6D-05, r^2= 1.2D+01
   Bfn.  Coefficient  Atom+Function         Bfn.  Coefficient  Atom+Function  
  ----- ------------  ---------------      ----- ------------  ---------------
    51     21.028252   2 C  s               235    -21.026308   6 C  s         
   302    -11.894950   8 H  s               348     11.897069  10 H  s         
    97     10.860762   3 C  s               189    -10.863038   5 C  s         
   279     -9.685822   7 H  s               371      9.680772  11 H  s         
    12     -8.047641   1 C  px              150     -6.979407   4 C  px        
 
 Vector   75  Occ=0.000000D+00  E= 3.481656D-01
              MO Center=  3.3D-02, -5.2D-01,  2.5D-05, r^2= 1.3D+01
   Bfn.  Coefficient  Atom+Function         Bfn.  Coefficient  Atom+Function  
  ----- ------------  ---------------      ----- ------------  ---------------
   155     -3.951368   4 C  pz               17      3.764396   1 C  pz        
   109      3.544939   3 C  pz              201      3.545016   5 C  pz        
    63     -3.435669   2 C  pz              247     -3.435750   6 C  pz        
   152     -2.975572   4 C  pz               51      2.451304   2 C  s         
   235     -2.446700   6 C  s               213     -2.294014   5 C  d -1      
 
 Vector   76  Occ=0.000000D+00  E= 3.527433D-01
              MO Center=  3.3D-02, -5.3D-01, -4.2D-05, r^2= 1.4D+01
   Bfn.  Coefficient  Atom+Function         Bfn.  Coefficient  Atom+Function  
  ----- ------------  ---------------      ----- ------------  ---------------
    17      6.394068   1 C  pz               63     -5.862462   2 C  pz        
   247     -5.862515   6 C  pz              109      5.128812   3 C  pz        
   201      5.128836   5 C  pz              155     -4.856070   4 C  pz        
   335      3.961150   9 H  pz               14      3.794858   1 C  pz        
   167      3.077799   4 C  d -1             60     -2.684051   2 C  pz        
 
 Vector   77  Occ=0.000000D+00  E= 3.546386D-01
              MO Center= -2.0D-02,  3.1D-01, -1.0D-04, r^2= 1.5D+01
   Bfn.  Coefficient  Atom+Function         Bfn.  Coefficient  Atom+Function  
  ----- ------------  ---------------      ----- ------------  ---------------
     5     31.343891   1 C  s               143     15.878896   4 C  s         
    51    -15.734488   2 C  s               235    -15.732075   6 C  s         
   151    -11.071457   4 C  py              196     -7.595645   5 C  px        
    50      7.381709   2 C  s               234      7.381686   6 C  s         
    13      7.272027   1 C  py              104      7.155061   3 C  px        
 
 Vector   78  Occ=0.000000D+00  E= 3.599083D-01
              MO Center= -4.7D-02,  7.5D-01, -3.7D-06, r^2= 1.3D+01
   Bfn.  Coefficient  Atom+Function         Bfn.  Coefficient  Atom+Function  
  ----- ------------  ---------------      ----- ------------  ---------------
   289      3.405848   7 H  pz              381     -3.405952  11 H  pz        
    60      3.157751   2 C  pz              244     -3.157768   6 C  pz        
    77     -3.082982   2 C  d  1            121     -3.088173   3 C  d -1      
   259      3.025651   6 C  d -1            213      2.786940   5 C  d -1      
   312     -2.762343   8 H  pz              358      2.762260  10 H  pz        
 
 Vector   79  Occ=0.000000D+00  E= 3.685621D-01
              MO Center=  3.6D-02, -5.7D-01, -3.1D-06, r^2= 1.3D+01
   Bfn.  Coefficient  Atom+Function         Bfn.  Coefficient  Atom+Function  
  ----- ------------  ---------------      ----- ------------  ---------------
    96     10.728571   3 C  s               188     10.727437   5 C  s         
   104     -8.499128   3 C  px              196      8.489445   5 C  px        
   142     -7.533053   4 C  s                 5      7.225131   1 C  s         
   212      5.397092   5 C  d -2            258      5.320097   6 C  d -2      
   120     -5.225746   3 C  d -2            242     -5.088404   6 C  px        
 
 Vector   80  Occ=0.000000D+00  E= 3.720966D-01
              MO Center=  2.0D-02, -3.1D-01,  5.9D-06, r^2= 1.3D+01
   Bfn.  Coefficient  Atom+Function         Bfn.  Coefficient  Atom+Function  
  ----- ------------  ---------------      ----- ------------  ---------------
    97      9.835556   3 C  s               189     -9.834425   5 C  s         
    50      9.029099   2 C  s               234     -9.028748   6 C  s         
   279     -5.479713   7 H  s               371      5.482129  11 H  s         
   357      5.245392  10 H  py              311     -5.124442   8 H  py        
   212     -4.882738   5 C  d -2             51     -4.818577   2 C  s         
 
 Vector   81  Occ=0.000000D+00  E= 3.819057D-01
              MO Center=  3.6D-02, -5.7D-01,  1.2D-05, r^2= 1.6D+01
   Bfn.  Coefficient  Atom+Function         Bfn.  Coefficient  Atom+Function  
  ----- ------------  ---------------      ----- ------------  ---------------
   166      9.081975   4 C  d -2            333      7.118166   9 H  px        
   150     -6.666063   4 C  px              216     -6.559557   5 C  d  2      
   124      6.104505   3 C  d  2            279      5.864327   7 H  s         
   371     -5.864603  11 H  s               310      5.086843   8 H  px        
   356      5.023153  10 H  px               96     -4.803729   3 C  s         
 
 Vector   82  Occ=0.000000D+00  E= 3.932647D-01
              MO Center= -2.9D-02,  4.6D-01,  2.1D-06, r^2= 1.5D+01
   Bfn.  Coefficient  Atom+Function         Bfn.  Coefficient  Atom+Function  
  ----- ------------  ---------------      ----- ------------  ---------------
    12     12.180512   1 C  px               51    -11.048529   2 C  s         
   235     11.049923   6 C  s                78     -9.086799   2 C  d  2      
   262      8.758308   6 C  d  2             15     -6.828151   1 C  px        
   216      6.672090   5 C  d  2            153     -5.861544   4 C  px        
   124     -5.830268   3 C  d  2            379     -5.815577  11 H  px        
 
 Vector   83  Occ=0.000000D+00  E= 3.960294D-01
              MO Center= -5.2D-02,  8.3D-01, -1.0D-04, r^2= 1.2D+01
   Bfn.  Coefficient  Atom+Function         Bfn.  Coefficient  Atom+Function  
  ----- ------------  ---------------      ----- ------------  ---------------
   152     -7.530562   4 C  pz              106      7.336274   3 C  pz        
   198      7.336448   5 C  pz               60     -6.479744   2 C  pz        
   244     -6.479807   6 C  pz              167     -6.333740   4 C  d -1      
   215      5.117769   5 C  d  1            123     -4.711528   3 C  d  1      
    14      4.573245   1 C  pz              259      4.026495   6 C  d -1      
 
 Vector   84  Occ=0.000000D+00  E= 4.017356D-01
              MO Center= -3.3D-02,  5.2D-01,  1.8D-04, r^2= 1.5D+01
   Bfn.  Coefficient  Atom+Function         Bfn.  Coefficient  Atom+Function  
  ----- ------------  ---------------      ----- ------------  ---------------
     5     51.746852   1 C  s                51    -19.778742   2 C  s         
   235    -19.776027   6 C  s                97    -17.391482   3 C  s         
   189    -17.388728   5 C  s               143     11.662932   4 C  s         
   142    -10.268146   4 C  s                 4     -9.670049   1 C  s         
    50     -7.941457   2 C  s               234     -7.941842   6 C  s         
 
 Vector   85  Occ=0.000000D+00  E= 4.053093D-01
              MO Center= -5.4D-03,  8.6D-02, -5.8D-05, r^2= 1.3D+01
   Bfn.  Coefficient  Atom+Function         Bfn.  Coefficient  Atom+Function  
  ----- ------------  ---------------      ----- ------------  ---------------
[...]
     Occ.   21 alpha a   ---  Virt.   38 alpha a   -0.12132 X
     Occ.   13 beta  a   ---  Virt.   21 beta  a    0.05596 X
     Occ.   15 beta  a   ---  Virt.   21 beta  a    0.10236 X
     Occ.   19 beta  a   ---  Virt.   24 beta  a    0.22080 X
     Occ.   20 beta  a   ---  Virt.   22 beta  a   -0.14453 X
  ----------------------------------------------------------------------------
  Root  27         a              0.251973191 a.u.                6.8565 eV 
  <S2> =   1.6619
  ----------------------------------------------------------------------------
     Transition Moments    X  0.00451   Y  0.00028   Z  0.24500
     Transition Moments   XX -0.00033  XY  0.00244  XZ -0.01065
     Transition Moments   YY  0.00031  YZ  0.16705  ZZ  0.00000
     Dipole Oscillator Strength                    0.0100865830
     Electric Quadrupole                           0.0000000024
     Magnetic Dipole                               0.0000000311
     Total Oscillator Strength                     0.0100866165
 
     Occ.   19 alpha a   ---  Virt.   26 alpha a    0.98229 X
     Occ.   19 alpha a   ---  Virt.   35 alpha a   -0.07115 X
     Occ.   19 alpha a   ---  Virt.   36 alpha a   -0.07362 X
     Occ.   20 alpha a   ---  Virt.   25 alpha a    0.11475 X
     Occ.   20 beta  a   ---  Virt.   26 beta  a    0.05037 X
  ----------------------------------------------------------------------------
  Root  28         a              0.252622570 a.u.                6.8742 eV 
  <S2> =   1.8893
  ----------------------------------------------------------------------------
     Transition Moments    X  0.00070   Y -0.01147   Z  0.00006
     Transition Moments   XX -0.00319  XY  0.00235  XZ  0.39286
     Transition Moments   YY -0.04034  YZ  0.02479  ZZ -0.00296
     Dipole Oscillator Strength                    0.0000222571
     Electric Quadrupole                           0.0000000133
     Magnetic Dipole                               0.0000000096
     Total Oscillator Strength                     0.0000222800
 
     Occ.   19 alpha a   ---  Virt.   25 alpha a   -0.24728 X
     Occ.   20 alpha a   ---  Virt.   26 alpha a   -0.96028 X
     Occ.   20 alpha a   ---  Virt.   35 alpha a    0.06154 X
     Occ.   20 alpha a   ---  Virt.   36 alpha a    0.06547 X
     Occ.   19 beta  a   ---  Virt.   26 beta  a    0.06490 X
  ----------------------------------------------------------------------------
  Root  29         a              0.253987840 a.u.                6.9114 eV 
  <S2> =   1.6184
  ----------------------------------------------------------------------------
     Transition Moments    X  0.00001   Y  0.00099   Z -0.00001
     Transition Moments   XX -0.00068  XY -0.00056  XZ -0.49371
     Transition Moments   YY  0.00818  YZ -0.03112  ZZ  0.00018
     Dipole Oscillator Strength                    0.0000001665
     Electric Quadrupole                           0.0000000214
     Magnetic Dipole                               0.0000000109
     Total Oscillator Strength                     0.0000001988
 
     Occ.   20 alpha a   ---  Virt.   26 alpha a    0.06948 X
     Occ.   19 beta  a   ---  Virt.   26 beta  a    0.98515 X
     Occ.   19 beta  a   ---  Virt.   35 beta  a   -0.05784 X
     Occ.   19 beta  a   ---  Virt.   36 beta  a   -0.07402 X
     Occ.   20 beta  a   ---  Virt.   25 beta  a    0.09685 X
  ----------------------------------------------------------------------------
  Root  30         a              0.254756269 a.u.                6.9323 eV 
  <S2> =   0.7707
  ----------------------------------------------------------------------------
     Transition Moments    X -1.50337   Y -0.09504   Z  0.00083
     Transition Moments   XX -0.02426  XY  0.18970  XZ  0.00061
     Transition Moments   YY  0.02353  YZ -0.01021  ZZ -0.00006
     Dipole Oscillator Strength                    0.3853881513
     Electric Quadrupole                           0.0000000032
     Magnetic Dipole                               0.0000000194
     Total Oscillator Strength                     0.3853881740
 
     Occ.   19 alpha a   ---  Virt.   22 alpha a   -0.38010 X
     Occ.   19 alpha a   ---  Virt.   22 alpha a    0.05311 Y
     Occ.   20 alpha a   ---  Virt.   23 alpha a    0.42686 X
     Occ.   20 alpha a   ---  Virt.   23 alpha a   -0.05109 Y
     Occ.   20 alpha a   ---  Virt.   29 alpha a   -0.14083 X
     Occ.   21 alpha a   ---  Virt.   25 alpha a    0.07640 X
     Occ.   21 alpha a   ---  Virt.   27 alpha a   -0.38948 X
     Occ.   13 beta  a   ---  Virt.   21 beta  a    0.12801 X
     Occ.   15 beta  a   ---  Virt.   21 beta  a    0.27045 X
     Occ.   19 beta  a   ---  Virt.   24 beta  a    0.49863 X
     Occ.   19 beta  a   ---  Virt.   29 beta  a   -0.13915 X
     Occ.   20 beta  a   ---  Virt.   22 beta  a   -0.34839 X
     Occ.   20 beta  a   ---  Virt.   22 beta  a    0.05611 Y
  ----------------------------------------------------------------------------
  Root  31         a              0.255405041 a.u.                6.9499 eV 
  <S2> =   0.8014
  ----------------------------------------------------------------------------
     Transition Moments    X  0.04057   Y -0.63617   Z -0.00000
     Transition Moments   XX -0.65031  XY  0.07809  XZ -0.00375
     Transition Moments   YY -1.88532  YZ -0.00024  ZZ -0.14655
     Dipole Oscillator Strength                    0.0691915345
     Electric Quadrupole                           0.0000000716
     Magnetic Dipole                               0.0000000000
     Total Oscillator Strength                     0.0691916060
 
     Occ.   19 alpha a   ---  Virt.   23 alpha a    0.10546 X
     Occ.   20 alpha a   ---  Virt.   22 alpha a    0.11460 X
     Occ.   21 alpha a   ---  Virt.   26 alpha a    0.18447 X
     Occ.   21 alpha a   ---  Virt.   28 alpha a   -0.90978 X
     Occ.   21 alpha a   ---  Virt.   30 alpha a   -0.12846 X
     Occ.   21 alpha a   ---  Virt.   31 alpha a   -0.16274 X
     Occ.   21 alpha a   ---  Virt.   48 alpha a    0.05656 X
     Occ.   16 beta  a   ---  Virt.   21 beta  a    0.18855 X
     Occ.   19 beta  a   ---  Virt.   22 beta  a    0.10930 X
     Occ.   20 beta  a   ---  Virt.   24 beta  a    0.09635 X
  ----------------------------------------------------------------------------
  Root  32         a              0.260750665 a.u.                7.0954 eV 
  <S2> =   0.8002
  ----------------------------------------------------------------------------
     Transition Moments    X  0.00667   Y  0.00042   Z -0.09558
     Transition Moments   XX  0.00006  XY -0.00047  XZ  0.04440
     Transition Moments   YY -0.00006  YZ -0.70485  ZZ  0.00000
     Dipole Oscillator Strength                    0.0015957075
     Electric Quadrupole                           0.0000000471
     Magnetic Dipole                               0.0000000330
     Total Oscillator Strength                     0.0015957876
 
     Occ.   21 alpha a   ---  Virt.   29 alpha a    0.97945 X
     Occ.   21 alpha a   ---  Virt.   33 alpha a    0.17993 X
  ----------------------------------------------------------------------------
  Root  33         a              0.265400390 a.u.                7.2219 eV 
  <S2> =   1.7807
  ----------------------------------------------------------------------------
     Transition Moments    X  0.00002   Y -0.00031   Z  0.00000
     Transition Moments   XX -0.00536  XY -0.00021  XZ  0.54581
     Transition Moments   YY -0.00212  YZ  0.03439  ZZ  0.00175
     Dipole Oscillator Strength                    0.0000000175
     Electric Quadrupole                           0.0000000298
     Magnetic Dipole                               0.0000000006
     Total Oscillator Strength                     0.0000000479
 
     Occ.   20 beta  a   ---  Virt.   27 beta  a    0.99103 X
     Occ.   20 beta  a   ---  Virt.   38 beta  a   -0.09649 X
  ----------------------------------------------------------------------------
  Root  34         a              0.267188955 a.u.                7.2706 eV 
  <S2> =   0.8216
  ----------------------------------------------------------------------------
     Transition Moments    X  0.07576   Y -1.20074   Z  0.00000
     Transition Moments   XX  0.01886  XY -0.04278  XZ -0.00310
     Transition Moments   YY  0.69485  YZ -0.00019  ZZ  0.04599
     Dipole Oscillator Strength                    0.2578422760
     Electric Quadrupole                           0.0000000151
     Magnetic Dipole                               0.0000000000
     Total Oscillator Strength                     0.2578422910
 
     Occ.   17 alpha a   ---  Virt.   23 alpha a   -0.08607 X
     Occ.   19 alpha a   ---  Virt.   23 alpha a    0.30513 X
     Occ.   19 alpha a   ---  Virt.   29 alpha a    0.16159 X
     Occ.   20 alpha a   ---  Virt.   22 alpha a    0.22282 X
     Occ.   21 alpha a   ---  Virt.   28 alpha a    0.30116 X
     Occ.   21 alpha a   ---  Virt.   30 alpha a   -0.42773 X
     Occ.   21 alpha a   ---  Virt.   31 alpha a    0.08028 X
     Occ.   14 beta  a   ---  Virt.   21 beta  a   -0.08798 X
     Occ.   16 beta  a   ---  Virt.   21 beta  a    0.50156 X
     Occ.   19 beta  a   ---  Virt.   22 beta  a    0.22349 X
     Occ.   20 beta  a   ---  Virt.   24 beta  a    0.30739 X
     Occ.   20 beta  a   ---  Virt.   29 beta  a    0.34424 X
  ----------------------------------------------------------------------------
  Root  35         a              0.270809778 a.u.                7.3691 eV 
  <S2> =   2.7052
  ----------------------------------------------------------------------------
     Transition Moments    X  0.00048   Y  0.00003   Z  0.00949
     Transition Moments   XX -0.00036  XY  0.00291  XZ -0.00954
     Transition Moments   YY  0.00036  YZ  0.15083  ZZ  0.00000
     Dipole Oscillator Strength                    0.0000162970
     Electric Quadrupole                           0.0000000024
     Magnetic Dipole                               0.0000000000
     Total Oscillator Strength                     0.0000162995
 
     Occ.   20 alpha a   ---  Virt.   27 alpha a   -0.79600 X
     Occ.   20 alpha a   ---  Virt.   38 alpha a    0.08787 X
     Occ.   19 beta  a   ---  Virt.   27 beta  a    0.57727 X
     Occ.   19 beta  a   ---  Virt.   38 beta  a   -0.06825 X
     Occ.   20 beta  a   ---  Virt.   28 beta  a    0.05392 X
     Occ.   20 beta  a   ---  Virt.   30 beta  a    0.06119 X
  ----------------------------------------------------------------------------
  Root  36         a              0.271252400 a.u.                7.3812 eV 
  <S2> =   2.7406
  ----------------------------------------------------------------------------
     Transition Moments    X  0.04869   Y  0.00303   Z -0.00112
     Transition Moments   XX  0.00378  XY -0.02866  XZ  0.00063
     Transition Moments   YY -0.00375  YZ -0.00992  ZZ  0.00004
     Dipole Oscillator Strength                    0.0004306399
     Electric Quadrupole                           0.0000000001
     Magnetic Dipole                               0.0000000018
     Total Oscillator Strength                     0.0004306419
 
     Occ.   17 alpha a   ---  Virt.   22 alpha a    0.59747 X
     Occ.   17 alpha a   ---  Virt.   41 alpha a   -0.05236 X
     Occ.   19 alpha a   ---  Virt.   32 alpha a   -0.08377 X
     Occ.   20 alpha a   ---  Virt.   29 alpha a    0.16413 X
     Occ.   20 alpha a   ---  Virt.   44 alpha a   -0.22713 X
     Occ.   20 alpha a   ---  Virt.   47 alpha a    0.17395 X
     Occ.   17 beta  a   ---  Virt.   22 beta  a   -0.64419 X
     Occ.   17 beta  a   ---  Virt.   41 beta  a    0.05429 X
     Occ.   19 beta  a   ---  Virt.   29 beta  a   -0.10199 X
     Occ.   19 beta  a   ---  Virt.   44 beta  a    0.20051 X
     Occ.   19 beta  a   ---  Virt.   47 beta  a   -0.16651 X
     Occ.   20 beta  a   ---  Virt.   31 beta  a    0.10161 X
  ----------------------------------------------------------------------------
  Root  37         a              0.271754103 a.u.                7.3948 eV 
  <S2> =   1.0518
  ----------------------------------------------------------------------------
     Transition Moments    X -0.03231   Y  0.51248   Z  0.00002
     Transition Moments   XX -1.05219  XY -0.11436  XZ -0.00358
     Transition Moments   YY  0.75550  YZ  0.00038  ZZ -0.23965
     Dipole Oscillator Strength                    0.0477702187
     Electric Quadrupole                           0.0000000890
     Magnetic Dipole                               0.0000000001
     Total Oscillator Strength                     0.0477703078
 
     Occ.   17 alpha a   ---  Virt.   23 alpha a    0.06253 X
     Occ.   19 alpha a   ---  Virt.   23 alpha a   -0.09117 X
     Occ.   21 alpha a   ---  Virt.   30 alpha a   -0.79733 X
     Occ.   21 alpha a   ---  Virt.   31 alpha a    0.20551 X
     Occ.   21 alpha a   ---  Virt.   35 alpha a   -0.07436 X
     Occ.   21 alpha a   ---  Virt.   40 alpha a    0.05669 X
     Occ.   14 beta  a   ---  Virt.   21 beta  a    0.06323 X
     Occ.   16 beta  a   ---  Virt.   21 beta  a   -0.18861 X
     Occ.   19 beta  a   ---  Virt.   22 beta  a   -0.05850 X
     Occ.   20 beta  a   ---  Virt.   24 beta  a   -0.09594 X
     Occ.   20 beta  a   ---  Virt.   29 beta  a   -0.48458 X
  ----------------------------------------------------------------------------
  Root  38         a              0.271808562 a.u.                7.3963 eV 
  <S2> =   0.8291
  ----------------------------------------------------------------------------
     Transition Moments    X  0.00209   Y  0.00048   Z -0.02489
     Transition Moments   XX -0.00060  XY -0.00102  XZ  0.05510
     Transition Moments   YY  0.00041  YZ -0.87277  ZZ -0.00017
     Dipole Oscillator Strength                    0.0001130800
     Electric Quadrupole                           0.0000000818
     Magnetic Dipole                               0.0000000038
     Total Oscillator Strength                     0.0001131656
 
     Occ.   20 alpha a   ---  Virt.   27 alpha a    0.57428 X
     Occ.   19 beta  a   ---  Virt.   27 beta  a    0.80010 X
     Occ.   19 beta  a   ---  Virt.   38 beta  a   -0.07506 X
     Occ.   20 beta  a   ---  Virt.   28 beta  a   -0.12849 X
  ----------------------------------------------------------------------------
  Root  39         a              0.272284977 a.u.                7.4093 eV 
  <S2> =   1.7261
  ----------------------------------------------------------------------------
     Transition Moments    X -0.00019   Y  0.00307   Z -0.00002
     Transition Moments   XX -0.00391  XY -0.00076  XZ -0.54908
     Transition Moments   YY  0.00809  YZ -0.03488  ZZ -0.00410
     Dipole Oscillator Strength                    0.0000017213
     Electric Quadrupole                           0.0000000325
     Magnetic Dipole                               0.0000000013
     Total Oscillator Strength                     0.0000017551
 
     Occ.   19 alpha a   ---  Virt.   27 alpha a   -0.99026 X
     Occ.   19 alpha a   ---  Virt.   38 alpha a    0.09593 X
  ----------------------------------------------------------------------------
  Root  40         a              0.272509406 a.u.                7.4154 eV 
  <S2> =   1.9618
  ----------------------------------------------------------------------------
     Transition Moments    X  0.00004   Y  0.00001   Z  0.04148
     Transition Moments   XX  0.00007  XY -0.00056  XZ -0.02784
     Transition Moments   YY -0.00007  YZ  0.44000  ZZ -0.00000
     Dipole Oscillator Strength                    0.0003125605
     Electric Quadrupole                           0.0000000209
     Magnetic Dipole                               0.0000000053
     Total Oscillator Strength                     0.0003125867
 
     Occ.   19 alpha a   ---  Virt.   28 alpha a   -0.11707 X
     Occ.   20 alpha a   ---  Virt.   27 alpha a    0.12672 X
     Occ.   17 beta  a   ---  Virt.   21 beta  a   -0.05506 X
     Occ.   19 beta  a   ---  Virt.   27 beta  a    0.06775 X
     Occ.   20 beta  a   ---  Virt.   28 beta  a    0.96948 X
     Occ.   20 beta  a   ---  Virt.   30 beta  a    0.05585 X
     Occ.   20 beta  a   ---  Virt.   32 beta  a    0.07454 X
     Occ.   20 beta  a   ---  Virt.   43 beta  a    0.08100 X
 
              Target root =      1
          Target symmetry = none
      Ground state energy =   -231.646325809704
        Excitation energy =      0.106293712929
     Excited state energy =   -231.540032096774
 
  stored tddft:energy   -231.540032096774     

 Task  times  cpu:     3967.6s     wall:     4098.8s
 
 
                                NWChem Input Module
                                -------------------
 
 
 Summary of allocated global arrays
-----------------------------------
  No active global arrays



                         GA Statistics for process    0
                         ------------------------------

       create   destroy   get      put      acc     scatter   gather  read&inc
calls: 9555     9555     8.99e+06 4.05e+06 1.68e+06 5660        0      297     
number of processes/call 1.36e+00 1.75e+00 1.90e+00 0.00e+00 0.00e+00
bytes total:             8.06e+10 1.09e+10 8.97e+10 6.26e+04 0.00e+00 2.38e+03
bytes remote:            5.90e+10 1.10e+09 8.56e+10 0.00e+00 0.00e+00 0.00e+00
Max memory consumed for GA by this process: 205086464 bytes
 
MA_summarize_allocated_blocks: starting scan ...
MA_summarize_allocated_blocks: scan completed: 0 heap blocks, 0 stack blocks
MA usage statistics:

	allocation statistics:
					      heap	     stack
					      ----	     -----
	current number of blocks	         0	         0
	maximum number of blocks	        20	        52
	current total bytes		         0	         0
	maximum total bytes		   1166000	  68276408
	maximum total K-bytes		      1166	     68277
	maximum total M-bytes		         2	        69
 
 
                                     CITATION
                                     --------
                Please cite the following reference when publishing
                           results obtained with NWChem:
 
                 M. Valiev, E.J. Bylaska, N. Govind, K. Kowalski,
              T.P. Straatsma, H.J.J. van Dam, D. Wang, J. Nieplocha,
                        E. Apra, T.L. Windus, W.A. de Jong
                 "NWChem: a comprehensive and scalable open-source
                  solution for large scale molecular simulations"
                      Comput. Phys. Commun. 181, 1477 (2010)
                           doi:10.1016/j.cpc.2010.04.018
 
                                      AUTHORS
                                      -------
          E. Apra, E. J. Bylaska, W. A. de Jong, N. Govind, K. Kowalski,
       T. P. Straatsma, M. Valiev, H. J. J. van Dam, D. Wang, T. L. Windus,
        J. Hammond, J. Autschbach, K. Bhaskaran-Nair, J. Brabec, K. Lopata,
    S. A. Fischer, S. Krishnamoorthy, M. Jacquelin, W. Ma, M. Klemm, O. Villa,
      Y. Chen, V. Anisimov, F. Aquino, S. Hirata, M. T. Hackler, V. Konjkov,
            D. Mejia-Rodriguez, T. Risthaus, M. Malagoli, A. Marenich,
   A. Otero-de-la-Roza, J. Mullin, P. Nichols, R. Peverati, J. Pittner, Y. Zhao,
        P.-D. Fan, A. Fonari, M. J. Williamson, R. J. Harrison, J. R. Rehr,
      M. Dupuis, D. Silverstein, D. M. A. Smith, J. Nieplocha, V. Tipparaju,
    M. Krishnan, B. E. Van Kuiken, A. Vazquez-Mayagoitia, L. Jensen, M. Swart,
      Q. Wu, T. Van Voorhis, A. A. Auer, M. Nooijen, L. D. Crosby, E. Brown,
      G. Cisneros, G. I. Fann, H. Fruchtl, J. Garza, K. Hirao, R. A. Kendall,
      J. A. Nichols, K. Tsemekhman, K. Wolinski, J. Anchell, D. E. Bernholdt,
      P. Borowski, T. Clark, D. Clerc, H. Dachsel, M. J. O. Deegan, K. Dyall,
    D. Elwood, E. Glendening, M. Gutowski, A. C. Hess, J. Jaffe, B. G. Johnson,
     J. Ju, R. Kobayashi, R. Kutteh, Z. Lin, R. Littlefield, X. Long, B. Meng,
      T. Nakajima, S. Niu, L. Pollack, M. Rosing, K. Glaesemann, G. Sandrone,
      M. Stave, H. Taylor, G. Thomas, J. H. van Lenthe, A. T. Wong, Z. Zhang.

 Total times  cpu:     3967.6s     wall:     4098.9s
