 argument  1 = /storage/home/j/jbb5516/normalModes/mode1471.12-p.nw
 


============================== echo of input deck ==============================
echo
start

title "None"

geometry
C    -0.08743313    1.38769343    0.00000005
C    -1.26672445    0.69189569   -0.00000002
C    -1.16780388   -0.70461944   -0.00000002
C     0.08293538   -1.31628324    0.00000004
C     1.24700847   -0.55246957   -0.00000001
C     1.16986295    0.84541638    0.00000005
H    -2.23292845    1.17831348   -0.00000010
H    -2.06663082   -1.30802932   -0.00000009
H     0.15094429   -2.39575197   -0.00000000
H     2.21446228   -1.03829481   -0.00000013
H     2.06737300    1.44926058   -0.00000010
symmetry c1
end

basis spherical
 * library "aug-cc-pvtz"
end

dft
 direct
 mult 2
 iterations 500
 xc b3lyp
end

tddft
 nroots 40
 notriplet
 algorithm 1
end
task tddft energy
================================================================================


                                         
                                         
 
 
              Northwest Computational Chemistry Package (NWChem) 6.8
              ------------------------------------------------------
 
 
                    Environmental Molecular Sciences Laboratory
                       Pacific Northwest National Laboratory
                                Richland, WA 99352
 
                              Copyright (c) 1994-2017
                       Pacific Northwest National Laboratory
                            Battelle Memorial Institute
 
             NWChem is an open-source computational chemistry package
                        distributed under the terms of the
                      Educational Community License (ECL) 2.0
             A copy of the license is included with this distribution
                              in the LICENSE.TXT file
 
                                  ACKNOWLEDGMENT
                                  --------------

            This software and its documentation were developed at the
            EMSL at Pacific Northwest National Laboratory, a multiprogram
            national laboratory, operated for the U.S. Department of Energy
            by Battelle under Contract Number DE-AC05-76RL01830. Support
            for this work was provided by the Department of Energy Office
            of Biological and Environmental Research, Office of Basic
            Energy Sciences, and the Office of Advanced Scientific Computing.


           Job information
           ---------------

    hostname        = comp-sc-0157.acib.production.int.aci.ics.psu.edu
    program         = /gpfs/group/lxj18/default/jeffprograms/nwchem-6.8.1/bin/LINUX64/nwchem
    date            = Sun Sep 20 16:45:58 2020

    compiled        = Wed_Oct_03_14:08:39_2018
    source          = /gpfs/group/lxj18/default/jeffprograms/nwchem-6.8.1
    nwchem branch   = 6.8.1
    nwchem revision = v6.8-143-gdb0d964
    ga revision     = 5.6.5
    use scalapack   = F
    input           = /storage/home/j/jbb5516/normalModes/mode1471.12-p.nw
    prefix          = mode1471.12-p.
    data base       = ./mode1471.12-p.db
    status          = startup
    nproc           =       20
    time left       =     -1s



           Memory information
           ------------------

    heap     =   13107200 doubles =    100.0 Mbytes
    stack    =   13107197 doubles =    100.0 Mbytes
    global   =   26214400 doubles =    200.0 Mbytes (distinct from heap & stack)
    total    =   52428797 doubles =    400.0 Mbytes
    verify   = yes
    hardfail = no 


           Directory information
           ---------------------
 
  0 permanent = .
  0 scratch   = .
 
 
 
 
                                NWChem Input Module
                                -------------------
 
 
                                       None
                                       ----

 Scaling coordinates for geometry "geometry" by  1.889725989
 (inverse scale =  0.529177249)

 Turning off AUTOSYM since
 SYMMETRY directive was detected!
 

          ------
          auto-z
          ------
 
 
                             Geometry "geometry" -> ""
                             -------------------------
 
 Output coordinates in angstroms (scale by  1.889725989 to convert to a.u.)
 
  No.       Tag          Charge          X              Y              Z
 ---- ---------------- ---------- -------------- -------------- --------------
    1 C                    6.0000    -0.08744026     1.38780813     0.00000005
    2 C                    6.0000    -1.26673158     0.69201039    -0.00000002
    3 C                    6.0000    -1.16781101    -0.70450474    -0.00000002
    4 C                    6.0000     0.08292825    -1.31616854     0.00000004
    5 C                    6.0000     1.24700134    -0.55235487    -0.00000001
    6 C                    6.0000     1.16985582     0.84553108     0.00000005
    7 H                    1.0000    -2.23293558     1.17842818    -0.00000010
    8 H                    1.0000    -2.06663795    -1.30791462    -0.00000009
    9 H                    1.0000     0.15093716    -2.39563727    -0.00000000
   10 H                    1.0000     2.21445515    -1.03818011    -0.00000013
   11 H                    1.0000     2.06736587     1.44937528    -0.00000010
 
      Atomic Mass 
      ----------- 
 
      C                 12.000000
      H                  1.007825
 

 Effective nuclear repulsion energy (a.u.)     195.0631828095

            Nuclear Dipole moment (a.u.) 
            ----------------------------
        X                 Y               Z
 ---------------- ---------------- ----------------
    -0.0000000000     0.0000000000     0.0000000000
 


                                Z-matrix (autoz)
                                -------- 

 Units are Angstrom for bonds and degrees for angles
 
      Type          Name      I     J     K     L     M      Value
      ----------- --------  ----- ----- ----- ----- ----- ----------
    1 Stretch                  1     2                       1.36926
    2 Stretch                  1     6                       1.36925
    3 Stretch                  2     3                       1.40001
    4 Stretch                  2     7                       1.08174
    5 Stretch                  3     4                       1.39229
    6 Stretch                  3     8                       1.08259
    7 Stretch                  4     5                       1.39229
    8 Stretch                  4     9                       1.08161
    9 Stretch                  5     6                       1.40001
   10 Stretch                  5    10                       1.08259
   11 Stretch                  6    11                       1.08174
   12 Bend                     1     2     3               116.48946
   13 Bend                     1     2     7               122.73669
   14 Bend                     1     6     5               116.48953
   15 Bend                     1     6    11               122.73662
   16 Bend                     2     1     6               126.12809
   17 Bend                     2     3     4               120.11228
   18 Bend                     2     3     8               119.82295
   19 Bend                     3     2     7               120.77385
   20 Bend                     3     4     5               120.66831
   21 Bend                     3     4     9               119.66556
   22 Bend                     4     3     8               120.06477
   23 Bend                     4     5     6               120.11233
   24 Bend                     4     5    10               120.06449
   25 Bend                     5     4     9               119.66613
   26 Bend                     5     6    11               120.77385
   27 Bend                     6     5    10               119.82317
   28 Torsion                  1     2     3     4           0.00000
   29 Torsion                  1     2     3     8        -180.00000
   30 Torsion                  1     6     5     4           0.00000
   31 Torsion                  1     6     5    10         180.00000
   32 Torsion                  2     1     6     5           0.00000
   33 Torsion                  2     1     6    11         180.00000
   34 Torsion                  2     3     4     5           0.00000
   35 Torsion                  2     3     4     9        -180.00000
   36 Torsion                  3     2     1     6           0.00000
   37 Torsion                  3     4     5     6           0.00000
   38 Torsion                  3     4     5    10        -180.00000
   39 Torsion                  4     3     2     7         180.00000
   40 Torsion                  4     5     6    11        -180.00000
   41 Torsion                  5     4     3     8         180.00000
   42 Torsion                  6     1     2     7        -180.00000
   43 Torsion                  6     5     4     9        -180.00000
   44 Torsion                  7     2     3     8           0.00000
   45 Torsion                  8     3     4     9           0.00000
   46 Torsion                  9     4     5    10           0.00000
   47 Torsion                 10     5     6    11           0.00000
 
 
            XYZ format geometry
            -------------------
    11
 geometry
 C                    -0.08744026     1.38780813     0.00000005
 C                    -1.26673158     0.69201039    -0.00000002
 C                    -1.16781101    -0.70450474    -0.00000002
 C                     0.08292825    -1.31616854     0.00000004
 C                     1.24700134    -0.55235487    -0.00000001
 C                     1.16985582     0.84553108     0.00000005
 H                    -2.23293558     1.17842818    -0.00000010
 H                    -2.06663795    -1.30791462    -0.00000009
 H                     0.15093716    -2.39563727    -0.00000000
 H                     2.21445515    -1.03818011    -0.00000013
 H                     2.06736587     1.44937528    -0.00000010
 
 ==============================================================================
                                internuclear distances
 ------------------------------------------------------------------------------
       center one      |      center two      | atomic units |  angstroms
 ------------------------------------------------------------------------------
    2 C                |   1 C                |     2.58752  |     1.36926
    3 C                |   2 C                |     2.64564  |     1.40001
    4 C                |   3 C                |     2.63105  |     1.39229
    5 C                |   4 C                |     2.63105  |     1.39229
    6 C                |   1 C                |     2.58752  |     1.36925
    6 C                |   5 C                |     2.64564  |     1.40001
    7 H                |   2 C                |     2.04418  |     1.08174
    8 H                |   3 C                |     2.04579  |     1.08259
    9 H                |   4 C                |     2.04394  |     1.08161
   10 H                |   5 C                |     2.04579  |     1.08259
   11 H                |   6 C                |     2.04418  |     1.08174
 ------------------------------------------------------------------------------
                         number of included internuclear distances:         11
 ==============================================================================



 ==============================================================================
                                 internuclear angles
 ------------------------------------------------------------------------------
        center 1       |       center 2       |       center 3       |  degrees
 ------------------------------------------------------------------------------
    2 C                |   1 C                |   6 C                |   126.13
    1 C                |   2 C                |   3 C                |   116.49
    1 C                |   2 C                |   7 H                |   122.74
    3 C                |   2 C                |   7 H                |   120.77
    2 C                |   3 C                |   4 C                |   120.11
    2 C                |   3 C                |   8 H                |   119.82
    4 C                |   3 C                |   8 H                |   120.06
    3 C                |   4 C                |   5 C                |   120.67
    3 C                |   4 C                |   9 H                |   119.67
    5 C                |   4 C                |   9 H                |   119.67
    4 C                |   5 C                |   6 C                |   120.11
    4 C                |   5 C                |  10 H                |   120.06
    6 C                |   5 C                |  10 H                |   119.82
    1 C                |   6 C                |   5 C                |   116.49
    1 C                |   6 C                |  11 H                |   122.74
    5 C                |   6 C                |  11 H                |   120.77
 ------------------------------------------------------------------------------
                            number of included internuclear angles:         16
 ==============================================================================





 Summary of "ao basis" -> "" (spherical)
 ------------------------------------------------------------------------------
       Tag                 Description            Shells   Functions and Types
 ---------------- ------------------------------  ------  ---------------------
 *                        aug-cc-pvtz                 on all atoms 


 
                                 NWChem DFT Module
                                 -----------------
 
 
                                       None
 
 
                      Basis "ao basis" -> "ao basis" (spherical)
                      -----
  C (Carbon)
  ----------
            Exponent  Coefficients 
       -------------- ---------------------------------------------------------
  1 S  8.23600000E+03  0.000531
  1 S  1.23500000E+03  0.004108
  1 S  2.80800000E+02  0.021087
  1 S  7.92700000E+01  0.081853
  1 S  2.55900000E+01  0.234817
  1 S  8.99700000E+00  0.434401
  1 S  3.31900000E+00  0.346129
  1 S  3.64300000E-01 -0.008983
 
  2 S  8.23600000E+03 -0.000113
  2 S  1.23500000E+03 -0.000878
  2 S  2.80800000E+02 -0.004540
  2 S  7.92700000E+01 -0.018133
  2 S  2.55900000E+01 -0.055760
  2 S  8.99700000E+00 -0.126895
  2 S  3.31900000E+00 -0.170352
  2 S  3.64300000E-01  0.598684
 
  3 S  9.05900000E-01  1.000000
 
  4 S  1.28500000E-01  1.000000
 
  5 S  4.40200000E-02  1.000000
 
  6 P  1.87100000E+01  0.014031
  6 P  4.13300000E+00  0.086866
  6 P  1.20000000E+00  0.290216
 
  7 P  3.82700000E-01  1.000000
 
  8 P  1.20900000E-01  1.000000
 
  9 P  3.56900000E-02  1.000000
 
 10 D  1.09700000E+00  1.000000
 
 11 D  3.18000000E-01  1.000000
 
 12 D  1.00000000E-01  1.000000
 
 13 F  7.61000000E-01  1.000000
 
 14 F  2.68000000E-01  1.000000
 
  H (Hydrogen)
  ------------
            Exponent  Coefficients 
       -------------- ---------------------------------------------------------
  1 S  3.38700000E+01  0.006068
  1 S  5.09500000E+00  0.045308
  1 S  1.15900000E+00  0.202822
 
  2 S  3.25800000E-01  1.000000
 
  3 S  1.02700000E-01  1.000000
 
  4 S  2.52600000E-02  1.000000
 
  5 P  1.40700000E+00  1.000000
 
  6 P  3.88000000E-01  1.000000
 
  7 P  1.02000000E-01  1.000000
 
  8 D  1.05700000E+00  1.000000
 
  9 D  2.47000000E-01  1.000000
 


 Summary of "ao basis" -> "ao basis" (spherical)
 ------------------------------------------------------------------------------
       Tag                 Description            Shells   Functions and Types
 ---------------- ------------------------------  ------  ---------------------
 C                        aug-cc-pvtz               14       46   5s4p3d2f
 H                        aug-cc-pvtz                9       23   4s3p2d




 Summary of "ao basis" -> "ao basis" (spherical)
 ------------------------------------------------------------------------------
       Tag                 Description            Shells   Functions and Types
 ---------------- ------------------------------  ------  ---------------------
 C                        aug-cc-pvtz               14       46   5s4p3d2f
 H                        aug-cc-pvtz                9       23   4s3p2d


  Caching 1-el integrals 
 
            General Information
            -------------------
          SCF calculation type: DFT
          Wavefunction type:  spin polarized.
          No. of atoms     :    11
          No. of electrons :    41
           Alpha electrons :    21
            Beta electrons :    20
          Charge           :     0
          Spin multiplicity:     2
          Use of symmetry is: off; symmetry adaption is: off
          Maximum number of iterations: 500
          This is a Direct SCF calculation.
          AO basis - number of functions:   391
                     number of shells:   129
          Convergence on energy requested:  1.00D-06
          Convergence on density requested:  1.00D-05
          Convergence on gradient requested:  5.00D-04
 
              XC Information
              --------------
                         B3LYP Method XC Potential
                     Hartree-Fock (Exact) Exchange  0.200          
                        Slater Exchange Functional  0.800 local    
                    Becke 1988 Exchange Functional  0.720 non-local
              Lee-Yang-Parr Correlation Functional  0.810          
                  VWN I RPA Correlation Functional  0.190 local    
 
             Grid Information
             ----------------
          Grid used for XC integration:  medium    
          Radial quadrature: Mura-Knowles        
          Angular quadrature: Lebedev. 
          Tag              B.-S. Rad. Rad. Pts. Rad. Cut. Ang. Pts.
          ---              ---------- --------- --------- ---------
          C                   0.70       49          15.0       434
          H                   0.35       45          17.0       434
          Grid pruning is: on 
          Number of quadrature shells:   519
          Spatial weights used:  Erf1
 
          Convergence Information
          -----------------------
          Convergence aids based upon iterative change in 
          total energy or number of iterations. 
          Levelshifting, if invoked, occurs when the 
          HOMO/LUMO gap drops below (HL_TOL):  1.00D-02
          DIIS, if invoked, will attempt to extrapolate 
          using up to (NFOCK): 10 stored Fock matrices.

                    Damping( 0%)  Levelshifting(0.5)       DIIS
                  --------------- ------------------- ---------------
          dE  on:    start            ASAP                start   
          dE off:    2 iters        500 iters           500 iters 

 
      Screening Tolerance Information
      -------------------------------
          Density screening/tol_rho:  1.00D-10
          AO Gaussian exp screening on grid/accAOfunc:  14
          CD Gaussian exp screening on grid/accCDfunc:  20
          XC Gaussian exp screening on grid/accXCfunc:  20
          Schwarz screening/accCoul:  1.00D-08

 
 WARNING : Found     7 linear dependencies 
 S eigenvalue threshold:     1.00000E-05
 Smallest S eigenvalue :     1.45005E-06
 Largest  S eigenvalue :     7.80399E-06
 

 !! The overlap matrix has   7 vectors deemed linearly dependent with
    eigenvalues:
 1.45D-06 2.24D-06 2.82D-06 3.54D-06 5.26D-06 5.95D-06 7.80D-06
 
 
      Superposition of Atomic Density Guess
      -------------------------------------
 
 Sum of atomic energies:        -228.52307259
 
      Non-variational initial energy
      ------------------------------

 Total energy =    -232.667096
 1-e energy   =    -691.326645
 2-e energy   =     263.596366
 HOMO         =      -0.183249
 LUMO         =      -0.022403
 
   Time after variat. SCF:     10.1
   Time prior to 1st pass:     10.1

 Grid_pts file          = ./mode1471.12-p.gridpts.00
 Record size in doubles =  12289        No. of grid_pts per rec  =   3070
 Max. records in memory =      6        Max. recs in file   = 221348927

 Grid integrated density:      40.999765446367
 Requested integration accuracy:   0.10E-05

           Memory utilization after 1st SCF pass: 
           Heap Space remaining (MW):       12.96            12961280
          Stack Space remaining (MW):       13.10            13103676

   convergence    iter        energy       DeltaE   RMS-Dens  Diis-err    time
 ---------------- ----- ----------------- --------- --------- ---------  ------
 d= 0,ls=0.0,diis     1   -231.5816966320 -4.27D+02  6.19D-02  2.09D-01    21.0
                                                     6.98D-02  1.96D-01
 d= 0,ls=0.0,diis     2   -231.6398038481 -5.81D-02  6.10D-02  1.22D-02    31.7
                                                     6.87D-02  1.25D-02
 d= 0,ls=0.0,diis     3   -231.6445748258 -4.77D-03  1.28D-03  3.49D-03    42.4
                                                     1.39D-03  3.56D-03
 d= 0,ls=0.0,diis     4   -231.6457567935 -1.18D-03  2.07D-04  1.14D-03    53.2
                                                     2.11D-04  1.07D-03
 d= 0,ls=0.0,diis     5   -231.6462796405 -5.23D-04  3.41D-05  4.03D-05    64.0
                                                     3.17D-05  4.74D-05
  Resetting Diis
 d= 0,ls=0.0,diis     6   -231.6463073804 -2.77D-05  1.15D-05  6.60D-06    74.8
                                                     1.08D-05  4.71D-06
 d= 0,ls=0.0,diis     7   -231.6463132780 -5.90D-06  5.96D-06  1.45D-06    85.6
                                                     5.75D-06  2.05D-06
 d= 0,ls=0.0,diis     8   -231.6463153436 -2.07D-06  2.46D-06  3.01D-06    96.4
                                                     2.09D-06  2.35D-06
 d= 0,ls=0.0,diis     9   -231.6463171564 -1.81D-06  2.94D-06  3.71D-07   107.2
                                                     2.69D-06  3.76D-07
 d= 0,ls=0.0,diis    10   -231.6463181681 -1.01D-06  2.68D-06  2.80D-07   118.1
                                                     2.86D-06  3.38D-07
 d= 0,ls=0.0,diis    11   -231.6463187538 -5.86D-07  5.25D-07  1.01D-08   128.9
                                                     4.87D-07  1.16D-08


         Total DFT energy =     -231.646318753841
      One electron energy =     -696.559046588446
           Coulomb energy =      304.258643835156
    Exchange-Corr. energy =      -34.409098810071
 Nuclear repulsion energy =      195.063182809520

 Numeric. integr. density =       40.999984910081

     Total iterative time =    118.8s


 
                    DFT Final Alpha Molecular Orbital Analysis
                    ------------------------------------------
 
 Vector    1  Occ=1.000000D+00  E=-1.020509D+01
              MO Center= -8.7D-02,  1.4D+00,  4.8D-08, r^2= 3.0D-02
   Bfn.  Coefficient  Atom+Function         Bfn.  Coefficient  Atom+Function  
  ----- ------------  ---------------      ----- ------------  ---------------
     1      0.984175   1 C  s                 3      0.058905   1 C  s         
    50     -0.037771   2 C  s               143      0.037796   4 C  s         
   234     -0.037772   6 C  s               279      0.037594   7 H  s         
   371      0.037592  11 H  s                51     -0.030394   2 C  s         
   235     -0.030394   6 C  s                47      0.025725   2 C  s         
 
 Vector    2  Occ=1.000000D+00  E=-1.019189D+01
              MO Center= -7.3D-01, -6.3D-01, -2.3D-08, r^2= 9.7D-01
   Bfn.  Coefficient  Atom+Function         Bfn.  Coefficient  Atom+Function  
  ----- ------------  ---------------      ----- ------------  ---------------
    93      0.874269   3 C  s               185      0.416469   5 C  s         
    47      0.166672   2 C  s               142     -0.093316   4 C  s         
   231      0.068684   6 C  s               139      0.055554   4 C  s         
    95      0.052245   3 C  s               302      0.048920   8 H  s         
   325      0.048529   9 H  s               234      0.036704   6 C  s         
 
 Vector    3  Occ=1.000000D+00  E=-1.019187D+01
              MO Center=  8.0D-01, -5.2D-01, -1.4D-08, r^2= 9.9D-01
   Bfn.  Coefficient  Atom+Function         Bfn.  Coefficient  Atom+Function  
  ----- ------------  ---------------      ----- ------------  ---------------
   185      0.872479   5 C  s                93     -0.412751   3 C  s         
   231      0.179767   6 C  s                47     -0.096078   2 C  s         
    50      0.062635   2 C  s               348      0.059055  10 H  s         
    51      0.052996   2 C  s               187      0.051886   5 C  s         
   279     -0.051270   7 H  s               234     -0.050897   6 C  s         
 
 Vector    4  Occ=1.000000D+00  E=-1.019034D+01
              MO Center= -1.2D+00,  6.5D-01, -2.1D-08, r^2= 2.9D-01
   Bfn.  Coefficient  Atom+Function         Bfn.  Coefficient  Atom+Function  
  ----- ------------  ---------------      ----- ------------  ---------------
    47      0.951277   2 C  s                93     -0.183651   3 C  s         
   231      0.178207   6 C  s               279      0.058752   7 H  s         
    49      0.055574   2 C  s               143      0.036582   4 C  s         
     4     -0.033837   1 C  s               189      0.033387   5 C  s         
   142     -0.031745   4 C  s                51     -0.030816   2 C  s         
 
 Vector    5  Occ=1.000000D+00  E=-1.019032D+01
              MO Center=  1.1D+00,  7.9D-01,  4.3D-08, r^2= 2.9D-01
   Bfn.  Coefficient  Atom+Function         Bfn.  Coefficient  Atom+Function  
  ----- ------------  ---------------      ----- ------------  ---------------
   231      0.950110   6 C  s               185     -0.187907   5 C  s         
    47     -0.171930   2 C  s               371      0.057070  11 H  s         
   233      0.055195   6 C  s                93      0.045408   3 C  s         
    97      0.044789   3 C  s                96      0.039962   3 C  s         
   189     -0.038139   5 C  s                12     -0.036278   1 C  px        
 
 Vector    6  Occ=1.000000D+00  E=-1.018437D+01
              MO Center=  8.3D-02, -1.3D+00,  3.9D-08, r^2= 3.4D-02
   Bfn.  Coefficient  Atom+Function         Bfn.  Coefficient  Atom+Function  
  ----- ------------  ---------------      ----- ------------  ---------------
   139      0.984299   4 C  s               141      0.057777   4 C  s         
    96     -0.046562   3 C  s               188     -0.046561   5 C  s         
   325      0.045988   9 H  s               143     -0.043122   4 C  s         
     4      0.040816   1 C  s                93     -0.039358   3 C  s         
   185     -0.039444   5 C  s               151      0.036222   4 C  py        
 
 Vector    7  Occ=1.000000D+00  E=-8.724838D-01
              MO Center= -6.6D-03,  1.0D-01,  5.0D-09, r^2= 2.0D+00
   Bfn.  Coefficient  Atom+Function         Bfn.  Coefficient  Atom+Function  
  ----- ------------  ---------------      ----- ------------  ---------------
     2      0.214922   1 C  s                48      0.202979   2 C  s         
   232      0.202963   6 C  s                94      0.195156   3 C  s         
   186      0.195140   5 C  s               140      0.187590   4 C  s         
    50      0.091349   2 C  s               234      0.091340   6 C  s         
    96      0.086302   3 C  s               188      0.086296   5 C  s         
 
 Vector    8  Occ=1.000000D+00  E=-7.626593D-01
              MO Center= -6.4D-03,  1.0D-01,  1.7D-09, r^2= 2.8D+00
   Bfn.  Coefficient  Atom+Function         Bfn.  Coefficient  Atom+Function  
  ----- ------------  ---------------      ----- ------------  ---------------
    48      0.251034   2 C  s               232     -0.251044   6 C  s         
    94      0.243578   3 C  s               186     -0.243584   5 C  s         
    50      0.145128   2 C  s               234     -0.145137   6 C  s         
   279     -0.128895   7 H  s               371      0.128901  11 H  s         
   150     -0.116127   4 C  px               97      0.110793   3 C  s         
 
 Vector    9  Occ=1.000000D+00  E=-7.537994D-01
              MO Center=  9.5D-03, -1.5D-01, -2.7D-08, r^2= 2.6D+00
   Bfn.  Coefficient  Atom+Function         Bfn.  Coefficient  Atom+Function  
  ----- ------------  ---------------      ----- ------------  ---------------
   140     -0.301094   4 C  s                 2      0.278384   1 C  s         
    94     -0.149412   3 C  s               186     -0.149408   5 C  s         
    48      0.147538   2 C  s               142     -0.147156   4 C  s         
   232      0.147527   6 C  s                96     -0.105051   3 C  s         
   188     -0.105046   5 C  s                 4      0.102045   1 C  s         
 
 Vector   10  Occ=1.000000D+00  E=-6.188065D-01
              MO Center= -2.3D-03,  3.7D-02, -1.0D-08, r^2= 3.6D+00
   Bfn.  Coefficient  Atom+Function         Bfn.  Coefficient  Atom+Function  
  ----- ------------  ---------------      ----- ------------  ---------------
    94     -0.208761   3 C  s               186      0.208756   5 C  s         
    48      0.199335   2 C  s               232     -0.199340   6 C  s         
    50      0.183323   2 C  s               234     -0.183329   6 C  s         
    96     -0.147719   3 C  s               188      0.147708   5 C  s         
     6     -0.127495   1 C  px              144      0.116866   4 C  px        
 
 Vector   11  Occ=1.000000D+00  E=-6.035177D-01
              MO Center=  5.3D-03, -8.5D-02, -3.2D-08, r^2= 3.5D+00
   Bfn.  Coefficient  Atom+Function         Bfn.  Coefficient  Atom+Function  
  ----- ------------  ---------------      ----- ------------  ---------------
   142      0.257823   4 C  s                 2      0.238763   1 C  s         
   140      0.218689   4 C  s                 4      0.198727   1 C  s         
    94     -0.138132   3 C  s               186     -0.138149   5 C  s         
    50     -0.121887   2 C  s               234     -0.121878   6 C  s         
    96     -0.120613   3 C  s               188     -0.120621   5 C  s         
 
 Vector   12  Occ=1.000000D+00  E=-5.276452D-01
              MO Center=  9.4D-03, -1.5D-01, -1.1D-08, r^2= 4.1D+00
   Bfn.  Coefficient  Atom+Function         Bfn.  Coefficient  Atom+Function  
  ----- ------------  ---------------      ----- ------------  ---------------
   148      0.159249   4 C  py              145      0.138824   4 C  py        
   324     -0.126828   9 H  s                55      0.105245   2 C  px        
   240     -0.105078   6 C  py              323     -0.100420   9 H  s         
   237     -0.096258   6 C  py              278     -0.094516   7 H  s         
   370     -0.094510  11 H  s                10     -0.093919   1 C  py        
 
 Vector   13  Occ=1.000000D+00  E=-4.646558D-01
              MO Center= -7.3D-03,  1.1D-01, -7.3D-11, r^2= 2.7D+00
   Bfn.  Coefficient  Atom+Function         Bfn.  Coefficient  Atom+Function  
  ----- ------------  ---------------      ----- ------------  ---------------
     9      0.189774   1 C  px                6      0.176357   1 C  px        
   147      0.171323   4 C  px              144      0.158104   4 C  px        
   239     -0.138249   6 C  px              194     -0.133883   5 C  py        
    56     -0.130608   2 C  py               55     -0.122865   2 C  px        
   236     -0.123285   6 C  px              191     -0.120583   5 C  py        
 
 Vector   14  Occ=1.000000D+00  E=-4.632965D-01
              MO Center=  1.0D-02, -1.7D-01, -4.3D-08, r^2= 4.8D+00
   Bfn.  Coefficient  Atom+Function         Bfn.  Coefficient  Atom+Function  
  ----- ------------  ---------------      ----- ------------  ---------------
     2      0.175837   1 C  s               301      0.136978   8 H  s         
   347      0.136958  10 H  s               140     -0.129967   4 C  s         
   193      0.127827   5 C  px              196      0.119855   5 C  px        
    96      0.118982   3 C  s               101     -0.118811   3 C  px        
   188      0.118995   5 C  s               190      0.118646   5 C  px        
 
 Vector   15  Occ=1.000000D+00  E=-4.398662D-01
              MO Center= -1.3D-02,  2.1D-01, -2.5D-08, r^2= 4.0D+00
   Bfn.  Coefficient  Atom+Function         Bfn.  Coefficient  Atom+Function  
  ----- ------------  ---------------      ----- ------------  ---------------
   240      0.144739   6 C  py              102      0.139998   3 C  py        
   237      0.133652   6 C  py               99      0.130845   3 C  py        
   278     -0.131187   7 H  s               370      0.131185  11 H  s         
    56     -0.129631   2 C  py               55      0.128578   2 C  px        
   194     -0.127831   5 C  py               53     -0.120502   2 C  py        
 
 Vector   16  Occ=1.000000D+00  E=-3.989995D-01
              MO Center=  4.9D-02, -7.8D-01, -1.0D-08, r^2= 3.3D+00
   Bfn.  Coefficient  Atom+Function         Bfn.  Coefficient  Atom+Function  
  ----- ------------  ---------------      ----- ------------  ---------------
   148      0.233598   4 C  py              145      0.209249   4 C  py        
   324     -0.198421   9 H  s               151      0.171855   4 C  py        
   323     -0.153931   9 H  s                10      0.138952   1 C  py        
    13      0.121011   1 C  py              240      0.115411   6 C  py        
    56      0.109611   2 C  py                7      0.108185   1 C  py        
 
 Vector   17  Occ=1.000000D+00  E=-3.837231D-01
              MO Center= -7.9D-03,  1.2D-01, -5.9D-08, r^2= 2.7D+00
   Bfn.  Coefficient  Atom+Function         Bfn.  Coefficient  Atom+Function  
  ----- ------------  ---------------      ----- ------------  ---------------
    11      0.174051   1 C  pz               57      0.156640   2 C  pz        
   241      0.156629   6 C  pz              103      0.151923   3 C  pz        
   195      0.151911   5 C  pz              149      0.145428   4 C  pz        
     8      0.137291   1 C  pz               54      0.125966   2 C  pz        
   238      0.125956   6 C  pz              100      0.121485   3 C  pz        
 
 Vector   18  Occ=1.000000D+00  E=-3.661100D-01
              MO Center=  9.7D-03, -1.5D-01, -2.8D-08, r^2= 4.1D+00
   Bfn.  Coefficient  Atom+Function         Bfn.  Coefficient  Atom+Function  
  ----- ------------  ---------------      ----- ------------  ---------------
   147     -0.170343   4 C  px              101      0.165950   3 C  px        
   193      0.165771   5 C  px              144     -0.160859   4 C  px        
    98      0.150100   3 C  px              190      0.149709   5 C  px        
     9      0.148086   1 C  px                6      0.140449   1 C  px        
   196      0.136010   5 C  px              104      0.133942   3 C  px        
 
 Vector   19  Occ=1.000000D+00  E=-2.685937D-01
              MO Center=  1.2D-03, -1.9D-02,  7.6D-08, r^2= 3.0D+00
   Bfn.  Coefficient  Atom+Function         Bfn.  Coefficient  Atom+Function  
  ----- ------------  ---------------      ----- ------------  ---------------
    11      0.244962   1 C  pz              149     -0.238763   4 C  pz        
     8      0.192645   1 C  pz              146     -0.190871   4 C  pz        
    14      0.176018   1 C  pz              152     -0.171673   4 C  pz        
   103     -0.126943   3 C  pz              195     -0.126831   5 C  pz        
    57      0.114533   2 C  pz              241      0.114635   6 C  pz        
 
 Vector   20  Occ=1.000000D+00  E=-2.677798D-01
              MO Center= -3.8D-03,  6.2D-02,  2.8D-07, r^2= 3.1D+00
   Bfn.  Coefficient  Atom+Function         Bfn.  Coefficient  Atom+Function  
  ----- ------------  ---------------      ----- ------------  ---------------
   103      0.207408   3 C  pz              195     -0.207479   5 C  pz        
    57      0.203864   2 C  pz              241     -0.203809   6 C  pz        
   100      0.165241   3 C  pz              192     -0.165297   5 C  pz        
    54      0.163252   2 C  pz              238     -0.163208   6 C  pz        
    60      0.150650   2 C  pz              106      0.149911   3 C  pz        
 
 Vector   21  Occ=1.000000D+00  E=-2.482018D-01
              MO Center= -8.2D-02,  1.3D+00,  8.5D-08, r^2= 2.3D+00
   Bfn.  Coefficient  Atom+Function         Bfn.  Coefficient  Atom+Function  
  ----- ------------  ---------------      ----- ------------  ---------------
    10      0.386044   1 C  py                5      0.337082   1 C  s         
    13      0.338564   1 C  py                7      0.299294   1 C  py        
     4      0.276850   1 C  s                 2      0.138045   1 C  s         
   243     -0.136545   6 C  py               59     -0.134411   2 C  py        
   102      0.112526   3 C  py              194      0.112556   5 C  py        
 
 Vector   22  Occ=0.000000D+00  E=-2.612149D-02
              MO Center= -4.3D-03,  6.8D-02, -1.1D-06, r^2= 4.3D+00
   Bfn.  Coefficient  Atom+Function         Bfn.  Coefficient  Atom+Function  
  ----- ------------  ---------------      ----- ------------  ---------------
   109     -0.319477   3 C  pz              201      0.319457   5 C  pz        
    63      0.313987   2 C  pz              247     -0.313971   6 C  pz        
    60      0.226917   2 C  pz              244     -0.226908   6 C  pz        
   106     -0.223709   3 C  pz              198      0.223697   5 C  pz        
    57      0.218830   2 C  pz              241     -0.218825   6 C  pz        
 
 Vector   23  Occ=0.000000D+00  E=-1.850153D-02
              MO Center=  3.3D-03, -5.3D-02, -4.1D-06, r^2= 4.3D+00
   Bfn.  Coefficient  Atom+Function         Bfn.  Coefficient  Atom+Function  
  ----- ------------  ---------------      ----- ------------  ---------------
   155      0.440724   4 C  pz               17      0.373985   1 C  pz        
   152      0.273929   4 C  pz               11      0.258576   1 C  pz        
   149      0.251019   4 C  pz               14      0.240379   1 C  pz        
   109     -0.226893   3 C  pz              201     -0.226902   5 C  pz        
     8      0.200319   1 C  pz               63     -0.198451   2 C  pz        
 
 Vector   24  Occ=0.000000D+00  E=-1.011339D-02
              MO Center=  6.0D-02, -9.6D-01, -2.3D-06, r^2= 2.0D+01
   Bfn.  Coefficient  Atom+Function         Bfn.  Coefficient  Atom+Function  
  ----- ------------  ---------------      ----- ------------  ---------------
     5      1.453990   1 C  s               279     -0.974561   7 H  s         
   371     -0.974556  11 H  s               326     -0.741810   9 H  s         
   303     -0.730998   8 H  s               349     -0.730866  10 H  s         
   302     -0.651520   8 H  s               348     -0.651542  10 H  s         
   325     -0.587398   9 H  s                51      0.564335   2 C  s         
 
 Vector   25  Occ=0.000000D+00  E= 4.374058D-03
              MO Center=  1.7D-02, -2.6D-01, -1.0D-05, r^2= 2.7D+01
   Bfn.  Coefficient  Atom+Function         Bfn.  Coefficient  Atom+Function  
  ----- ------------  ---------------      ----- ------------  ---------------
    51      2.731718   2 C  s               235     -2.731330   6 C  s         
    97      2.675716   3 C  s               189     -2.675724   5 C  s         
   303      1.995668   8 H  s               349     -1.995813  10 H  s         
    15      1.859051   1 C  px              153      1.816320   4 C  px        
   280      1.540769   7 H  s               372     -1.540594  11 H  s         
 
 Vector   26  Occ=0.000000D+00  E= 8.726972D-03
              MO Center=  4.7D-03, -7.5D-02,  5.4D-05, r^2= 2.7D+01
   Bfn.  Coefficient  Atom+Function         Bfn.  Coefficient  Atom+Function  
  ----- ------------  ---------------      ----- ------------  ---------------
   143      6.251238   4 C  s                51     -4.005751   2 C  s         
   235     -4.005838   6 C  s               326      2.931217   9 H  s         
     5      2.607899   1 C  s               280     -2.387871   7 H  s         
   372     -2.387825  11 H  s               154      1.947818   4 C  py        
   246      1.930033   6 C  py               62      1.825783   2 C  py        
 
 Vector   27  Occ=0.000000D+00  E= 2.669789D-02
              MO Center= -1.5D-02,  2.4D-01, -2.5D-05, r^2= 3.1D+01
   Bfn.  Coefficient  Atom+Function         Bfn.  Coefficient  Atom+Function  
  ----- ------------  ---------------      ----- ------------  ---------------
   280      3.934351   7 H  s               372     -3.934380  11 H  s         
    51      3.678512   2 C  s               235     -3.678864   6 C  s         
   303     -3.603250   8 H  s               349      3.603003  10 H  s         
    61      2.222879   2 C  px               97     -2.189659   3 C  s         
   189      2.189665   5 C  s               199     -2.033945   5 C  px        
 
 Vector   28  Occ=0.000000D+00  E= 3.223064D-02
              MO Center=  3.9D-02, -6.2D-01, -1.2D-04, r^2= 2.9D+01
   Bfn.  Coefficient  Atom+Function         Bfn.  Coefficient  Atom+Function  
  ----- ------------  ---------------      ----- ------------  ---------------
     5      6.429745   1 C  s               326     -4.999843   9 H  s         
   303      3.726807   8 H  s               349      3.727178  10 H  s         
    97     -2.195789   3 C  s               189     -2.195328   5 C  s         
   154     -2.173289   4 C  py              199     -1.643415   5 C  px        
   245      1.638878   6 C  px               61     -1.584904   2 C  px        
 
 Vector   29  Occ=0.000000D+00  E= 4.329794D-02
              MO Center=  1.4D-02, -2.2D-01,  1.1D-05, r^2= 1.3D+01
   Bfn.  Coefficient  Atom+Function         Bfn.  Coefficient  Atom+Function  
  ----- ------------  ---------------      ----- ------------  ---------------
   155      0.598389   4 C  pz               63      0.576682   2 C  pz        
   247      0.576641   6 C  pz               17     -0.261344   1 C  pz        
    60     -0.154935   2 C  pz              244     -0.154958   6 C  pz        
   289     -0.123576   7 H  pz              381     -0.123574  11 H  pz        
   259      0.119316   6 C  d -1             77      0.110079   2 C  d  1      
 
 Vector   30  Occ=0.000000D+00  E= 5.497862D-02
              MO Center=  9.5D-03, -1.5D-01, -4.3D-05, r^2= 1.5D+01
   Bfn.  Coefficient  Atom+Function         Bfn.  Coefficient  Atom+Function  
  ----- ------------  ---------------      ----- ------------  ---------------
     5     10.664343   1 C  s               143      5.350304   4 C  s         
    51     -4.500074   2 C  s               235     -4.500084   6 C  s         
   303     -2.807616   8 H  s               349     -2.807520  10 H  s         
   326      2.075081   9 H  s               199      2.022507   5 C  px        
    97     -1.951533   3 C  s               189     -1.951317   5 C  s         
 
 Vector   31  Occ=0.000000D+00  E= 6.331807D-02
              MO Center= -4.1D-02,  6.4D-01, -1.0D-04, r^2= 2.8D+01
   Bfn.  Coefficient  Atom+Function         Bfn.  Coefficient  Atom+Function  
  ----- ------------  ---------------      ----- ------------  ---------------
     5     24.397286   1 C  s                51     -9.801074   2 C  s         
   235     -9.801038   6 C  s               143      7.599977   4 C  s         
    97     -6.555257   3 C  s               189     -6.555155   5 C  s         
   326      5.868433   9 H  s               154      4.776968   4 C  py        
   303     -4.686068   8 H  s               349     -4.686201  10 H  s         
 
 Vector   32  Occ=0.000000D+00  E= 6.574593D-02
              MO Center=  1.6D-03, -2.5D-02,  5.4D-04, r^2= 1.8D+01
   Bfn.  Coefficient  Atom+Function         Bfn.  Coefficient  Atom+Function  
  ----- ------------  ---------------      ----- ------------  ---------------
   109      0.977128   3 C  pz              201     -0.977118   5 C  pz        
    63      0.769903   2 C  pz              247     -0.769864   6 C  pz        
   169     -0.667730   4 C  d  1             31     -0.593585   1 C  d  1      
    60      0.491165   2 C  pz              106      0.490464   3 C  pz        
   198     -0.490481   5 C  pz              244     -0.491138   6 C  pz        
 
 Vector   33  Occ=0.000000D+00  E= 6.826257D-02
              MO Center= -1.2D-02,  1.9D-01, -2.7D-04, r^2= 1.8D+01
   Bfn.  Coefficient  Atom+Function         Bfn.  Coefficient  Atom+Function  
  ----- ------------  ---------------      ----- ------------  ---------------
    63      1.025607   2 C  pz              247      1.025578   6 C  pz        
   109     -0.812480   3 C  pz              201     -0.812366   5 C  pz        
   155     -0.750139   4 C  pz               14      0.633556   1 C  pz        
   152     -0.615145   4 C  pz               17      0.456525   1 C  pz        
   213     -0.449197   5 C  d -1            261     -0.408769   6 C  d  1      
 
 Vector   34  Occ=0.000000D+00  E= 7.644565D-02
              MO Center=  9.4D-03, -1.7D-01, -1.3D-04, r^2= 3.4D+01
   Bfn.  Coefficient  Atom+Function         Bfn.  Coefficient  Atom+Function  
  ----- ------------  ---------------      ----- ------------  ---------------
    51     13.843805   2 C  s               235    -13.844472   6 C  s         
    97     12.429193   3 C  s               189    -12.430261   5 C  s         
   153      7.750411   4 C  px               15      7.631623   1 C  px        
   107      4.792834   3 C  px              303      4.694857   8 H  s         
   349     -4.694288  10 H  s               199      4.486469   5 C  px        
 
 Vector   35  Occ=0.000000D+00  E= 7.790490D-02
              MO Center=  2.1D-01, -3.3D+00,  1.3D-04, r^2= 2.1D+01
   Bfn.  Coefficient  Atom+Function         Bfn.  Coefficient  Atom+Function  
  ----- ------------  ---------------      ----- ------------  ---------------
   143     18.314531   4 C  s                51    -13.448801   2 C  s         
   235    -13.445023   6 C  s               326      7.028260   9 H  s         
    62      5.655843   2 C  py              246      5.678810   6 C  py        
   200      5.403399   5 C  py              154      5.278026   4 C  py        
   108      5.045526   3 C  py              279      4.184180   7 H  s         
 
 Vector   36  Occ=0.000000D+00  E= 8.156448D-02
              MO Center= -8.8D-02,  1.4D+00,  6.7D-05, r^2= 2.8D+01
   Bfn.  Coefficient  Atom+Function         Bfn.  Coefficient  Atom+Function  
  ----- ------------  ---------------      ----- ------------  ---------------
   143     20.655693   4 C  s                51     -8.904799   2 C  s         
   235     -8.907323   6 C  s               246      5.235832   6 C  py        
    62      5.140603   2 C  py              325     -4.944099   9 H  s         
   280     -4.564017   7 H  s               372     -4.564405  11 H  s         
   326      4.492524   9 H  s               200      4.463763   5 C  py        
 
 Vector   37  Occ=0.000000D+00  E= 8.317938D-02
              MO Center=  4.6D-02, -7.2D-01, -1.1D-05, r^2= 2.2D+01
   Bfn.  Coefficient  Atom+Function         Bfn.  Coefficient  Atom+Function  
  ----- ------------  ---------------      ----- ------------  ---------------
    97      4.945813   3 C  s               189     -4.946474   5 C  s         
    51     -3.153185   2 C  s               235      3.156548   6 C  s         
   108      2.804827   3 C  py              303      2.802726   8 H  s         
   349     -2.802693  10 H  s               200     -2.693425   5 C  py        
   153      2.598997   4 C  px               96      2.052295   3 C  s         
 
 Vector   38  Occ=0.000000D+00  E= 9.536578D-02
              MO Center= -5.5D-02,  8.7D-01,  1.2D-05, r^2= 3.1D+01
   Bfn.  Coefficient  Atom+Function         Bfn.  Coefficient  Atom+Function  
  ----- ------------  ---------------      ----- ------------  ---------------
    51     17.852807   2 C  s               235    -17.854895   6 C  s         
   280      7.220207   7 H  s               372     -7.220275  11 H  s         
    97     -6.854251   3 C  s               189      6.854615   5 C  s         
   108     -6.558019   3 C  py              303     -6.199189   8 H  s         
   349      6.198532  10 H  s               200      6.019712   5 C  py        
 
 Vector   39  Occ=0.000000D+00  E= 1.018174D-01
              MO Center= -7.4D-03,  1.2D-01, -3.3D-04, r^2= 1.9D+01
   Bfn.  Coefficient  Atom+Function         Bfn.  Coefficient  Atom+Function  
  ----- ------------  ---------------      ----- ------------  ---------------
    51     13.614633   2 C  s               235    -13.613381   6 C  s         
    97     10.912329   3 C  s               189    -10.912769   5 C  s         
    15      9.932042   1 C  px              153      9.723244   4 C  px        
   246     -6.078395   6 C  py              108     -6.011791   3 C  py        
   200      5.986582   5 C  py               62      5.883149   2 C  py        
 
 Vector   40  Occ=0.000000D+00  E= 1.065101D-01
              MO Center= -8.1D-03,  1.3D-01, -5.6D-04, r^2= 2.1D+01
   Bfn.  Coefficient  Atom+Function         Bfn.  Coefficient  Atom+Function  
  ----- ------------  ---------------      ----- ------------  ---------------
   143     18.340344   4 C  s                51     -9.953654   2 C  s         
   235     -9.953426   6 C  s                 5     -9.501986   1 C  s         
   107     -8.740393   3 C  px              199      7.954503   5 C  px        
   245     -7.057525   6 C  px              200      6.763095   5 C  py        
    61      6.494943   2 C  px              108      5.711171   3 C  py        
 
 Vector   41  Occ=0.000000D+00  E= 1.081954D-01
              MO Center= -1.0D-02,  1.6D-01, -9.4D-05, r^2= 2.2D+01
   Bfn.  Coefficient  Atom+Function         Bfn.  Coefficient  Atom+Function  
  ----- ------------  ---------------      ----- ------------  ---------------
    63      3.391870   2 C  pz              247     -3.391966   6 C  pz        
   109     -3.360008   3 C  pz              201      3.360461   5 C  pz        
    60      0.698412   2 C  pz              244     -0.698445   6 C  pz        
   106     -0.634942   3 C  pz              198      0.635046   5 C  pz        
    77     -0.382773   2 C  d  1            215      0.363529   5 C  d  1      
 
 Vector   42  Occ=0.000000D+00  E= 1.089853D-01
              MO Center=  2.9D-02, -4.7D-01,  2.1D-03, r^2= 2.1D+01
   Bfn.  Coefficient  Atom+Function         Bfn.  Coefficient  Atom+Function  
  ----- ------------  ---------------      ----- ------------  ---------------
   155      5.307924   4 C  pz              109     -3.430517   3 C  pz        
   201     -3.430229   5 C  pz               17      2.529720   1 C  pz        
   152      0.975813   4 C  pz              106     -0.597863   3 C  pz        
   198     -0.597820   5 C  pz              167      0.565701   4 C  d -1      
    14      0.513827   1 C  pz               63     -0.490146   2 C  pz        
 
 Vector   43  Occ=0.000000D+00  E= 1.095309D-01
              MO Center=  2.9D-02, -4.6D-01, -1.0D-03, r^2= 2.7D+01
   Bfn.  Coefficient  Atom+Function         Bfn.  Coefficient  Atom+Function  
  ----- ------------  ---------------      ----- ------------  ---------------
   326      7.710061   9 H  s               154      7.027996   4 C  py        
   303     -6.514611   8 H  s               349     -6.514994  10 H  s         
   143     -5.411709   4 C  s               108     -4.375607   3 C  py        
    62     -4.097804   2 C  py              200     -4.117966   5 C  py        
   246     -4.089422   6 C  py                4      3.962145   1 C  s         
 
 Vector   44  Occ=0.000000D+00  E= 1.178166D-01
              MO Center= -4.1D-02,  6.5D-01, -4.3D-04, r^2= 1.4D+01
   Bfn.  Coefficient  Atom+Function         Bfn.  Coefficient  Atom+Function  
  ----- ------------  ---------------      ----- ------------  ---------------
    17      6.885660   1 C  pz               63     -6.026560   2 C  pz        
   247     -6.026396   6 C  pz              109      5.059968   3 C  pz        
   201      5.059791   5 C  pz              155     -4.835905   4 C  pz        
    14      1.240130   1 C  pz               60     -1.022357   2 C  pz        
   244     -1.022322   6 C  pz              106      0.893789   3 C  pz        
 
 Vector   45  Occ=0.000000D+00  E= 1.263923D-01
              MO Center= -1.8D-02,  2.9D-01, -1.8D-05, r^2= 2.5D+01
   Bfn.  Coefficient  Atom+Function         Bfn.  Coefficient  Atom+Function  
  ----- ------------  ---------------      ----- ------------  ---------------
    51      7.661310   2 C  s               235     -7.661419   6 C  s         
   107      7.207455   3 C  px              199      7.126673   5 C  px        
   245     -7.041015   6 C  px               61     -6.926751   2 C  px        
    15      6.440995   1 C  px               97     -6.230535   3 C  s         
   189      6.230453   5 C  s               153     -5.782803   4 C  px        
 
 Vector   46  Occ=0.000000D+00  E= 1.274505D-01
              MO Center= -1.2D-02,  1.9D-01,  1.4D-04, r^2= 2.6D+01
   Bfn.  Coefficient  Atom+Function         Bfn.  Coefficient  Atom+Function  
  ----- ------------  ---------------      ----- ------------  ---------------
   154     -8.032012   4 C  py               16      7.442811   1 C  py        
   108      6.888751   3 C  py               62     -6.580476   2 C  py        
   200      6.572264   5 C  py              246     -6.389560   6 C  py        
   326     -4.059299   9 H  s                 5      3.515388   1 C  s         
   303      3.165013   8 H  s               349      3.165478  10 H  s         
 
 Vector   47  Occ=0.000000D+00  E= 1.609697D-01
              MO Center= -8.8D-03,  1.4D-01,  8.7D-05, r^2= 1.7D+01
   Bfn.  Coefficient  Atom+Function         Bfn.  Coefficient  Atom+Function  
  ----- ------------  ---------------      ----- ------------  ---------------
    17      8.213328   1 C  pz               63     -8.011158   2 C  pz        
   247     -8.011295   6 C  pz              155     -7.840368   4 C  pz        
   109      7.759313   3 C  pz              201      7.759451   5 C  pz        
    60     -1.193655   2 C  pz              106      1.189956   3 C  pz        
   198      1.189995   5 C  pz              244     -1.193690   6 C  pz        
 
 Vector   48  Occ=0.000000D+00  E= 1.659476D-01
              MO Center= -8.9D-02,  1.4D+00,  3.2D-04, r^2= 2.2D+01
   Bfn.  Coefficient  Atom+Function         Bfn.  Coefficient  Atom+Function  
  ----- ------------  ---------------      ----- ------------  ---------------
     5     59.226723   1 C  s                51    -25.888896   2 C  s         
   143     25.982696   4 C  s               235    -25.889608   6 C  s         
    97    -14.524317   3 C  s               189    -14.523154   5 C  s         
   154      7.440089   4 C  py              245      6.818777   6 C  px        
    61     -6.400733   2 C  px              326      6.158676   9 H  s         
 
 Vector   49  Occ=0.000000D+00  E= 1.754241D-01
              MO Center=  2.5D-02, -3.9D-01, -1.7D-04, r^2= 1.1D+01
   Bfn.  Coefficient  Atom+Function         Bfn.  Coefficient  Atom+Function  
  ----- ------------  ---------------      ----- ------------  ---------------
   335      1.104992   9 H  pz              312      1.079834   8 H  pz        
   358      1.079781  10 H  pz              289      0.972179   7 H  pz        
   381      0.972133  11 H  pz               17      0.957805   1 C  pz        
    63     -0.881912   2 C  pz              247     -0.881883   6 C  pz        
   106     -0.840675   3 C  pz              198     -0.840622   5 C  pz        
 
 Vector   50  Occ=0.000000D+00  E= 1.865064D-01
              MO Center=  3.4D-02, -5.4D-01,  9.4D-05, r^2= 1.5D+01
   Bfn.  Coefficient  Atom+Function         Bfn.  Coefficient  Atom+Function  
  ----- ------------  ---------------      ----- ------------  ---------------
     5     15.531673   1 C  s                97     -7.318098   3 C  s         
   189     -7.317574   5 C  s               325      4.486747   9 H  s         
    51     -4.342968   2 C  s               235     -4.342588   6 C  s         
    62     -4.097383   2 C  py              154      3.955020   4 C  py        
   246     -3.874799   6 C  py              143     -3.353489   4 C  s         
 
 Vector   51  Occ=0.000000D+00  E= 1.980668D-01
              MO Center= -3.0D-02,  4.7D-01,  3.7D-04, r^2= 2.3D+01
   Bfn.  Coefficient  Atom+Function         Bfn.  Coefficient  Atom+Function  
  ----- ------------  ---------------      ----- ------------  ---------------
    51     44.723964   2 C  s               235    -44.697091   6 C  s         
    97     25.099511   3 C  s               189    -25.106857   5 C  s         
    15     18.343193   1 C  px              153     17.224537   4 C  px        
   302    -14.072489   8 H  s               348     14.074886  10 H  s         
   200      9.392397   5 C  py              108     -8.675569   3 C  py        
 
 Vector   52  Occ=0.000000D+00  E= 1.984115D-01
              MO Center=  4.7D-02, -7.4D-01, -5.0D-04, r^2= 2.3D+01
   Bfn.  Coefficient  Atom+Function         Bfn.  Coefficient  Atom+Function  
  ----- ------------  ---------------      ----- ------------  ---------------
   143     61.310055   4 C  s                51    -34.496514   2 C  s         
   235    -34.531377   6 C  s               325    -16.817245   9 H  s         
    62     14.703302   2 C  py              246     14.431569   6 C  py        
   200     13.750459   5 C  py              108     12.538690   3 C  py        
     5    -11.462066   1 C  s               279     11.161146   7 H  s         
 
 Vector   53  Occ=0.000000D+00  E= 2.154250D-01
              MO Center=  9.4D-02, -1.5D+00, -4.9D-05, r^2= 1.5D+01
   Bfn.  Coefficient  Atom+Function         Bfn.  Coefficient  Atom+Function  
  ----- ------------  ---------------      ----- ------------  ---------------
    97     13.807685   3 C  s               189    -13.806753   5 C  s         
    96      6.556305   3 C  s               188     -6.556171   5 C  s         
   153      5.977049   4 C  px              279     -5.104222   7 H  s         
   371      5.103373  11 H  s               303      4.862126   8 H  s         
   349     -4.861996  10 H  s               246     -4.241568   6 C  py        
 
 Vector   54  Occ=0.000000D+00  E= 2.181979D-01
              MO Center=  1.7D-02, -2.7D-01, -1.7D-04, r^2= 1.5D+01
   Bfn.  Coefficient  Atom+Function         Bfn.  Coefficient  Atom+Function  
  ----- ------------  ---------------      ----- ------------  ---------------
   143     26.050472   4 C  s                51    -17.921873   2 C  s         
   235    -17.927629   6 C  s                 5     16.063293   1 C  s         
    16     -6.487587   1 C  py              325     -6.078363   9 H  s         
    62      4.847550   2 C  py              246      4.723211   6 C  py        
   279      3.755494   7 H  s               371      3.756635  11 H  s         
 
 Vector   55  Occ=0.000000D+00  E= 2.191860D-01
              MO Center= -8.4D-05,  1.7D-03,  1.1D-03, r^2= 1.5D+01
   Bfn.  Coefficient  Atom+Function         Bfn.  Coefficient  Atom+Function  
  ----- ------------  ---------------      ----- ------------  ---------------
    51     19.860945   2 C  s               235    -19.856891   6 C  s         
   108     -8.417919   3 C  py              200      8.076585   5 C  py        
    15      7.678331   1 C  px              302     -6.941855   8 H  s         
   348      6.941931  10 H  s               153      6.698897   4 C  px        
   246     -4.169431   6 C  py               62      4.013109   2 C  py        
 
 Vector   56  Occ=0.000000D+00  E= 2.301145D-01
              MO Center= -2.1D-02,  3.4D-01,  1.8D-03, r^2= 1.8D+01
   Bfn.  Coefficient  Atom+Function         Bfn.  Coefficient  Atom+Function  
  ----- ------------  ---------------      ----- ------------  ---------------
   199      4.875341   5 C  px              107      4.607727   3 C  px        
   153     -3.367913   4 C  px              303      3.200092   8 H  s         
   349     -3.199381  10 H  s                50     -3.168301   2 C  s         
   234      3.167805   6 C  s                15     -2.532381   1 C  px        
   108      2.434452   3 C  py               59      2.138637   2 C  py        
 
 Vector   57  Occ=0.000000D+00  E= 2.311933D-01
              MO Center= -5.0D-05,  1.0D-03, -3.8D-03, r^2= 1.6D+01
   Bfn.  Coefficient  Atom+Function         Bfn.  Coefficient  Atom+Function  
  ----- ------------  ---------------      ----- ------------  ---------------
   106      2.135890   3 C  pz              198     -2.135910   5 C  pz        
    60      2.054583   2 C  pz              244     -2.054552   6 C  pz        
   312     -1.817114   8 H  pz              358      1.817155  10 H  pz        
   289     -1.721420   7 H  pz              381      1.721389  11 H  pz        
   169     -1.376107   4 C  d  1             31     -1.251184   1 C  d  1      
 
 Vector   58  Occ=0.000000D+00  E= 2.355213D-01
              MO Center= -1.2D-02,  1.9D-01,  4.7D-04, r^2= 1.6D+01
   Bfn.  Coefficient  Atom+Function         Bfn.  Coefficient  Atom+Function  
  ----- ------------  ---------------      ----- ------------  ---------------
   143     14.851638   4 C  s                51    -10.389176   2 C  s         
   235    -10.370512   6 C  s               107     -8.180032   3 C  px        
   199      7.754861   5 C  px               61      5.416855   2 C  px        
   245     -5.298000   6 C  px              303     -4.430821   8 H  s         
   349     -4.433516  10 H  s                 5      3.885474   1 C  s         
 
 Vector   59  Occ=0.000000D+00  E= 2.362812D-01
              MO Center= -1.7D-03,  3.0D-02,  1.1D-03, r^2= 1.7D+01
   Bfn.  Coefficient  Atom+Function         Bfn.  Coefficient  Atom+Function  
  ----- ------------  ---------------      ----- ------------  ---------------
    97    -33.321406   3 C  s               189     33.321994   5 C  s         
    51     31.516786   2 C  s               235    -31.523357   6 C  s         
    96    -14.217160   3 C  s               188     14.216420   5 C  s         
   279     10.843452   7 H  s               371    -10.841765  11 H  s         
   302    -10.608675   8 H  s               348     10.608359  10 H  s         
 
 Vector   60  Occ=0.000000D+00  E= 2.434599D-01
              MO Center=  2.6D-03, -4.2D-02, -4.5D-04, r^2= 1.5D+01
   Bfn.  Coefficient  Atom+Function         Bfn.  Coefficient  Atom+Function  
  ----- ------------  ---------------      ----- ------------  ---------------
   152      3.403881   4 C  pz               14     -3.047959   1 C  pz        
   289      2.171221   7 H  pz              381      2.171234  11 H  pz        
   335     -2.123431   9 H  pz              261      2.008858   6 C  d  1      
    77     -1.993443   2 C  d  1             63     -1.597773   2 C  pz        
   247     -1.597698   6 C  pz              155      1.371831   4 C  pz        
 
 Vector   61  Occ=0.000000D+00  E= 2.593985D-01
              MO Center=  3.9D-02, -6.2D-01,  6.6D-05, r^2= 1.7D+01
   Bfn.  Coefficient  Atom+Function         Bfn.  Coefficient  Atom+Function  
  ----- ------------  ---------------      ----- ------------  ---------------
     5      9.046245   1 C  s               108     -6.753176   3 C  py        
   200     -6.152607   5 C  py              303     -5.275782   8 H  s         
   349     -5.275621  10 H  s               199      5.170621   5 C  px        
   197     -4.831885   5 C  py              105     -4.737531   3 C  py        
   154      4.648493   4 C  py              143     -4.496350   4 C  s         
 
 Vector   62  Occ=0.000000D+00  E= 2.620155D-01
              MO Center=  6.6D-02, -1.1D+00, -5.4D-05, r^2= 1.7D+01
   Bfn.  Coefficient  Atom+Function         Bfn.  Coefficient  Atom+Function  
  ----- ------------  ---------------      ----- ------------  ---------------
     5     18.659232   1 C  s               154     15.266718   4 C  py        
   143     15.093617   4 C  s                51    -14.431956   2 C  s         
   235    -14.434768   6 C  s               326      9.115749   9 H  s         
     4      6.132718   1 C  s                97     -4.664835   3 C  s         
   108     -4.681388   3 C  py              189     -4.662564   5 C  s         
 
 Vector   63  Occ=0.000000D+00  E= 2.675323D-01
              MO Center= -2.7D-02,  4.3D-01,  6.7D-05, r^2= 2.0D+01
   Bfn.  Coefficient  Atom+Function         Bfn.  Coefficient  Atom+Function  
  ----- ------------  ---------------      ----- ------------  ---------------
    51     20.294716   2 C  s               235    -20.293506   6 C  s         
    97    -11.980323   3 C  s               189     11.980976   5 C  s         
    61     11.022751   2 C  px              245     10.267226   6 C  px        
    96     -8.746902   3 C  s               188      8.747418   5 C  s         
   279      8.756067   7 H  s               371     -8.756208  11 H  s         
 
 Vector   64  Occ=0.000000D+00  E= 2.748292D-01
              MO Center= -1.8D-03,  2.9D-02,  6.6D-05, r^2= 1.4D+01
   Bfn.  Coefficient  Atom+Function         Bfn.  Coefficient  Atom+Function  
  ----- ------------  ---------------      ----- ------------  ---------------
   143      9.048763   4 C  s                 5      8.981673   1 C  s         
   154      5.847032   4 C  py              279     -5.732100   7 H  s         
   371     -5.731968  11 H  s               302     -4.637565   8 H  s         
   348     -4.636890  10 H  s               325     -4.260103   9 H  s         
    16     -4.018278   1 C  py              246      3.267589   6 C  py        
 
 Vector   65  Occ=0.000000D+00  E= 2.831199D-01
              MO Center= -1.1D-02,  1.8D-01, -2.1D-05, r^2= 1.6D+01
   Bfn.  Coefficient  Atom+Function         Bfn.  Coefficient  Atom+Function  
  ----- ------------  ---------------      ----- ------------  ---------------
    12      9.511417   1 C  px               97      8.903296   3 C  s         
   189     -8.903232   5 C  s               302      8.150216   8 H  s         
   348     -8.149919  10 H  s                51     -8.053607   2 C  s         
   235      8.053100   6 C  s               199      7.602693   5 C  px        
   107      7.122696   3 C  px              150      6.237995   4 C  px        
 
 Vector   66  Occ=0.000000D+00  E= 2.953522D-01
              MO Center= -2.1D-03,  3.3D-02, -2.0D-05, r^2= 1.6D+01
   Bfn.  Coefficient  Atom+Function         Bfn.  Coefficient  Atom+Function  
  ----- ------------  ---------------      ----- ------------  ---------------
    63      3.197116   2 C  pz              109     -3.182915   3 C  pz        
   201      3.182516   5 C  pz              247     -3.196880   6 C  pz        
   289     -2.273994   7 H  pz              381      2.274024  11 H  pz        
    60      2.255600   2 C  pz              244     -2.255584   6 C  pz        
   312      2.260436   8 H  pz              358     -2.260342  10 H  pz        
 
 Vector   67  Occ=0.000000D+00  E= 2.962135D-01
              MO Center= -6.0D-02,  9.6D-01,  4.1D-04, r^2= 1.4D+01
   Bfn.  Coefficient  Atom+Function         Bfn.  Coefficient  Atom+Function  
  ----- ------------  ---------------      ----- ------------  ---------------
     4     10.532689   1 C  s                59     -5.760977   2 C  py        
   243     -5.654934   6 C  py              105     -5.544333   3 C  py        
     5      5.418164   1 C  s               197     -5.150406   5 C  py        
    16      4.299056   1 C  py              279     -4.197994   7 H  s         
   371     -4.197781  11 H  s                13      3.915250   1 C  py        
 
 Vector   68  Occ=0.000000D+00  E= 3.080269D-01
              MO Center=  1.7D-02, -2.7D-01, -4.5D-04, r^2= 1.5D+01
   Bfn.  Coefficient  Atom+Function         Bfn.  Coefficient  Atom+Function  
  ----- ------------  ---------------      ----- ------------  ---------------
   155      5.178014   4 C  pz               14      4.375036   1 C  pz        
   109     -3.741006   3 C  pz              201     -3.741127   5 C  pz        
   335     -2.712417   9 H  pz               60     -2.054551   2 C  pz        
   244     -2.054447   6 C  pz              152      1.859183   4 C  pz        
    17      1.837093   1 C  pz               29     -1.719523   1 C  d -1      
 
 Vector   69  Occ=0.000000D+00  E= 3.151625D-01
              MO Center=  2.8D-03, -4.3D-02,  1.8D-05, r^2= 9.1D+00
   Bfn.  Coefficient  Atom+Function         Bfn.  Coefficient  Atom+Function  
  ----- ------------  ---------------      ----- ------------  ---------------
   261      1.234097   6 C  d  1             77      1.111223   2 C  d  1      
   169     -1.061975   4 C  d  1             75     -1.046869   2 C  d -1      
   259      0.899242   6 C  d -1            289     -0.729889   7 H  pz        
   381      0.729845  11 H  pz               31      0.626476   1 C  d  1      
    60     -0.281564   2 C  pz              244      0.281864   6 C  pz        
 
 Vector   70  Occ=0.000000D+00  E= 3.286655D-01
              MO Center=  4.0D-02, -6.3D-01,  4.9D-05, r^2= 1.5D+01
   Bfn.  Coefficient  Atom+Function         Bfn.  Coefficient  Atom+Function  
  ----- ------------  ---------------      ----- ------------  ---------------
   142     11.896805   4 C  s                96      8.430777   3 C  s         
   188      8.430737   5 C  s               151     -6.869780   4 C  py        
   325     -5.853279   9 H  s               334     -5.016991   9 H  py        
     4     -4.854880   1 C  s                 5      4.568480   1 C  s         
   302     -4.355376   8 H  s               348     -4.354906  10 H  s         
 
 Vector   71  Occ=0.000000D+00  E= 3.347513D-01
              MO Center= -1.3D-03,  2.2D-02,  2.0D-04, r^2= 7.7D+00
   Bfn.  Coefficient  Atom+Function         Bfn.  Coefficient  Atom+Function  
  ----- ------------  ---------------      ----- ------------  ---------------
   289      2.015790   7 H  pz              381      2.015921  11 H  pz        
   335      1.855475   9 H  pz               14     -1.779634   1 C  pz        
   155     -1.682795   4 C  pz               63     -1.537780   2 C  pz        
   247     -1.537805   6 C  pz               77     -1.509117   2 C  d  1      
   261      1.411279   6 C  d  1            106     -1.283209   3 C  pz        
 
 Vector   72  Occ=0.000000D+00  E= 3.433201D-01
              MO Center=  2.3D-02, -3.7D-01, -4.4D-03, r^2= 1.2D+01
   Bfn.  Coefficient  Atom+Function         Bfn.  Coefficient  Atom+Function  
  ----- ------------  ---------------      ----- ------------  ---------------
   169      3.237932   4 C  d  1             31      2.773745   1 C  d  1      
   312     -2.453896   8 H  pz              358      2.453518  10 H  pz        
   123      2.122895   3 C  d  1            215      2.086171   5 C  d  1      
   106     -1.773146   3 C  pz              198      1.773184   5 C  pz        
   289     -1.459434   7 H  pz              381      1.459423  11 H  pz        
 
 Vector   73  Occ=0.000000D+00  E= 3.447594D-01
              MO Center= -3.5D-02,  5.5D-01, -1.9D-03, r^2= 1.2D+01
   Bfn.  Coefficient  Atom+Function         Bfn.  Coefficient  Atom+Function  
  ----- ------------  ---------------      ----- ------------  ---------------
   143     23.681121   4 C  s               325    -13.117243   9 H  s         
   279     11.831112   7 H  s               371     11.832861  11 H  s         
    51    -11.758850   2 C  s               235    -11.764480   6 C  s         
     5     -7.540350   1 C  s               197     -6.867173   5 C  py        
   105     -6.737881   3 C  py              243     -5.969550   6 C  py        
 
 Vector   74  Occ=0.000000D+00  E= 3.479267D-01
              MO Center=  9.9D-03, -1.6D-01,  4.0D-03, r^2= 1.2D+01
   Bfn.  Coefficient  Atom+Function         Bfn.  Coefficient  Atom+Function  
  ----- ------------  ---------------      ----- ------------  ---------------
    51     21.326578   2 C  s               235    -21.323685   6 C  s         
   302    -12.056554   8 H  s               348     12.058620  10 H  s         
    97     10.849704   3 C  s               189    -10.851982   5 C  s         
   279     -9.676721   7 H  s               371      9.670971  11 H  s         
    12     -8.044132   1 C  px              150     -7.077977   4 C  px        
 
 Vector   75  Occ=0.000000D+00  E= 3.482970D-01
              MO Center=  3.1D-02, -4.9D-01,  3.0D-03, r^2= 1.3D+01
   Bfn.  Coefficient  Atom+Function         Bfn.  Coefficient  Atom+Function  
  ----- ------------  ---------------      ----- ------------  ---------------
   155     -4.078112   4 C  pz               17      3.932216   1 C  pz        
   109      3.673398   3 C  pz              201      3.673520   5 C  pz        
    63     -3.588801   2 C  pz              247     -3.588888   6 C  pz        
   152     -2.983301   4 C  pz              213     -2.302350   5 C  d -1      
   289      2.279588   7 H  pz              381      2.279517  11 H  pz        
 
 Vector   76  Occ=0.000000D+00  E= 3.526620D-01
              MO Center=  3.5D-02, -5.6D-01, -2.0D-04, r^2= 1.4D+01
   Bfn.  Coefficient  Atom+Function         Bfn.  Coefficient  Atom+Function  
  ----- ------------  ---------------      ----- ------------  ---------------
    17      6.314755   1 C  pz               63     -5.779438   2 C  pz        
   247     -5.779526   6 C  pz              109      5.033395   3 C  pz        
   201      5.033449   5 C  pz              155     -4.749548   4 C  pz        
   335      4.007361   9 H  pz               14      3.755003   1 C  pz        
   167      3.139515   4 C  d -1             60     -2.661092   2 C  pz        
 
 Vector   77  Occ=0.000000D+00  E= 3.546456D-01
              MO Center= -2.0D-02,  3.2D-01, -7.0D-04, r^2= 1.5D+01
   Bfn.  Coefficient  Atom+Function         Bfn.  Coefficient  Atom+Function  
  ----- ------------  ---------------      ----- ------------  ---------------
     5     31.600017   1 C  s                51    -15.583648   2 C  s         
   143     15.572959   4 C  s               235    -15.580010   6 C  s         
   151    -11.134305   4 C  py              196     -7.742490   5 C  px        
   104      7.290572   3 C  px               13      7.237205   1 C  py        
    50      7.163725   2 C  s               234      7.163629   6 C  s         
 
 Vector   78  Occ=0.000000D+00  E= 3.597823D-01
              MO Center= -4.5D-02,  7.2D-01,  2.3D-04, r^2= 1.3D+01
   Bfn.  Coefficient  Atom+Function         Bfn.  Coefficient  Atom+Function  
  ----- ------------  ---------------      ----- ------------  ---------------
   289      3.399841   7 H  pz              381     -3.399922  11 H  pz        
    60      3.159233   2 C  pz              244     -3.159201   6 C  pz        
    77     -3.101631   2 C  d  1            121     -3.072625   3 C  d -1      
   259      3.002548   6 C  d -1            312     -2.783806   8 H  pz        
   358      2.783725  10 H  pz              213      2.767640   5 C  d -1      
 
 Vector   79  Occ=0.000000D+00  E= 3.685248D-01
              MO Center=  3.6D-02, -5.7D-01, -1.5D-04, r^2= 1.3D+01
   Bfn.  Coefficient  Atom+Function         Bfn.  Coefficient  Atom+Function  
  ----- ------------  ---------------      ----- ------------  ---------------
    96     10.789128   3 C  s               188     10.787862   5 C  s         
   104     -8.426617   3 C  px              196      8.419847   5 C  px        
     5      7.601964   1 C  s               142     -7.592459   4 C  s         
   212      5.362338   5 C  d -2            258      5.287771   6 C  d -2      
   120     -5.189157   3 C  d -2            242     -5.076013   6 C  px        
 
 Vector   80  Occ=0.000000D+00  E= 3.719246D-01
              MO Center=  2.1D-02, -3.3D-01, -2.2D-04, r^2= 1.3D+01
   Bfn.  Coefficient  Atom+Function         Bfn.  Coefficient  Atom+Function  
  ----- ------------  ---------------      ----- ------------  ---------------
    97     10.033691   3 C  s               189    -10.032254   5 C  s         
    50      9.086856   2 C  s               234     -9.086290   6 C  s         
   279     -5.716414   7 H  s               371      5.718675  11 H  s         
   357      5.266775  10 H  py              311     -5.156062   8 H  py        
    51     -4.866688   2 C  s               212     -4.889818   5 C  d -2      
 
 Vector   81  Occ=0.000000D+00  E= 3.818751D-01
              MO Center=  3.5D-02, -5.6D-01,  1.0D-05, r^2= 1.6D+01
   Bfn.  Coefficient  Atom+Function         Bfn.  Coefficient  Atom+Function  
  ----- ------------  ---------------      ----- ------------  ---------------
   166      9.093018   4 C  d -2            333      7.133507   9 H  px        
   150     -6.668788   4 C  px              216     -6.586566   5 C  d  2      
   124      6.144066   3 C  d  2            279      5.688988   7 H  s         
   371     -5.689400  11 H  s               310      5.064749   8 H  px        
   356      4.989964  10 H  px               96     -4.801855   3 C  s         
 
 Vector   82  Occ=0.000000D+00  E= 3.930709D-01
              MO Center= -3.0D-02,  4.7D-01,  1.9D-04, r^2= 1.5D+01
   Bfn.  Coefficient  Atom+Function         Bfn.  Coefficient  Atom+Function  
  ----- ------------  ---------------      ----- ------------  ---------------
    12     12.117284   1 C  px               51    -11.273038   2 C  s         
   235     11.273995   6 C  s                78     -9.066714   2 C  d  2      
   262      8.760548   6 C  d  2             15     -6.784519   1 C  px        
   216      6.653419   5 C  d  2            153     -5.865949   4 C  px        
   379     -5.887734  11 H  px              124     -5.789137   3 C  d  2      
 
 Vector   83  Occ=0.000000D+00  E= 3.958966D-01
              MO Center= -5.2D-02,  8.3D-01,  1.4D-04, r^2= 1.2D+01
   Bfn.  Coefficient  Atom+Function         Bfn.  Coefficient  Atom+Function  
  ----- ------------  ---------------      ----- ------------  ---------------
   152     -7.508548   4 C  pz              106      7.325676   3 C  pz        
   198      7.325884   5 C  pz               60     -6.507297   2 C  pz        
   244     -6.507416   6 C  pz              167     -6.316804   4 C  d -1      
   215      5.111261   5 C  d  1            123     -4.703751   3 C  d  1      
    14      4.628624   1 C  pz              259      4.028276   6 C  d -1      
 
 Vector   84  Occ=0.000000D+00  E= 4.016657D-01
              MO Center= -3.2D-02,  5.1D-01, -6.7D-04, r^2= 1.5D+01
   Bfn.  Coefficient  Atom+Function         Bfn.  Coefficient  Atom+Function  
  ----- ------------  ---------------      ----- ------------  ---------------
     5     51.779062   1 C  s                51    -20.230383   2 C  s         
   235    -20.227927   6 C  s                97    -17.394117   3 C  s         
   189    -17.391341   5 C  s               143     12.509081   4 C  s         
   142    -10.244281   4 C  s                 4     -9.492311   1 C  s         
    50     -7.912178   2 C  s               234     -7.912916   6 C  s         
 
 Vector   85  Occ=0.000000D+00  E= 4.051789D-01
              MO Center= -5.1D-03,  8.1D-02, -6.4D-05, r^2= 1.3D+01
   Bfn.  Coefficient  Atom+Function         Bfn.  Coefficient  Atom+Function  
  ----- ------------  ---------------      ----- ------------  ---------------
[...]
     Occ.   21 alpha a   ---  Virt.   27 alpha a   -0.91006 X
     Occ.   21 alpha a   ---  Virt.   38 alpha a    0.12123 X
     Occ.   13 beta  a   ---  Virt.   21 beta  a   -0.05367 X
     Occ.   15 beta  a   ---  Virt.   21 beta  a   -0.09902 X
     Occ.   19 beta  a   ---  Virt.   24 beta  a   -0.21296 X
     Occ.   20 beta  a   ---  Virt.   22 beta  a    0.13908 X
  ----------------------------------------------------------------------------
  Root  27         a              0.252045847 a.u.                6.8585 eV 
  <S2> =   1.6601
  ----------------------------------------------------------------------------
     Transition Moments    X  0.00003   Y  0.00000   Z  0.24551
     Transition Moments   XX  0.00004  XY -0.00005  XZ -0.01062
     Transition Moments   YY  0.00013  YZ  0.16604  ZZ  0.00003
     Dipole Oscillator Strength                    0.0101283523
     Electric Quadrupole                           0.0000000024
     Magnetic Dipole                               0.0000000315
     Total Oscillator Strength                     0.0101283861
 
     Occ.   19 alpha a   ---  Virt.   26 alpha a    0.98265 X
     Occ.   19 alpha a   ---  Virt.   35 alpha a   -0.07115 X
     Occ.   19 alpha a   ---  Virt.   36 alpha a   -0.07375 X
     Occ.   20 alpha a   ---  Virt.   25 alpha a    0.11102 X
     Occ.   20 beta  a   ---  Virt.   26 beta  a    0.05101 X
  ----------------------------------------------------------------------------
  Root  28         a              0.252532887 a.u.                6.8718 eV 
  <S2> =   1.8909
  ----------------------------------------------------------------------------
     Transition Moments    X -0.00003   Y -0.00001   Z -0.00008
     Transition Moments   XX -0.00001  XY  0.00002  XZ -0.39474
     Transition Moments   YY -0.00007  YZ -0.02491  ZZ -0.00002
     Dipole Oscillator Strength                    0.0000000013
     Electric Quadrupole                           0.0000000134
     Magnetic Dipole                               0.0000000095
     Total Oscillator Strength                     0.0000000242
 
     Occ.   19 alpha a   ---  Virt.   25 alpha a    0.25613 X
     Occ.   20 alpha a   ---  Virt.   26 alpha a    0.95802 X
     Occ.   20 alpha a   ---  Virt.   35 alpha a   -0.06132 X
     Occ.   20 alpha a   ---  Virt.   36 alpha a   -0.06534 X
     Occ.   19 beta  a   ---  Virt.   26 beta  a   -0.06565 X
  ----------------------------------------------------------------------------
  Root  29         a              0.253875620 a.u.                6.9083 eV 
  <S2> =   1.6166
  ----------------------------------------------------------------------------
     Transition Moments    X -0.00005   Y  0.00002   Z  0.00001
     Transition Moments   XX  0.00003  XY -0.00005  XZ  0.49528
     Transition Moments   YY  0.00011  YZ  0.03121  ZZ  0.00003
     Dipole Oscillator Strength                    0.0000000005
     Electric Quadrupole                           0.0000000215
     Magnetic Dipole                               0.0000000109
     Total Oscillator Strength                     0.0000000329
 
     Occ.   20 alpha a   ---  Virt.   26 alpha a   -0.07036 X
     Occ.   19 beta  a   ---  Virt.   26 beta  a   -0.98500 X
     Occ.   19 beta  a   ---  Virt.   35 beta  a    0.05793 X
     Occ.   19 beta  a   ---  Virt.   36 beta  a    0.07394 X
     Occ.   20 beta  a   ---  Virt.   25 beta  a   -0.09824 X
  ----------------------------------------------------------------------------
  Root  30         a              0.254671266 a.u.                6.9300 eV 
  <S2> =   0.7704
  ----------------------------------------------------------------------------
     Transition Moments    X -1.50906   Y -0.09540   Z  0.00003
     Transition Moments   XX -0.02403  XY  0.18779  XZ -0.00004
     Transition Moments   YY  0.02322  YZ  0.00002  ZZ -0.00006
     Dipole Oscillator Strength                    0.3881825887
     Electric Quadrupole                           0.0000000032
     Magnetic Dipole                               0.0000000150
     Total Oscillator Strength                     0.3881826069
 
     Occ.   19 alpha a   ---  Virt.   22 alpha a   -0.38227 X
     Occ.   19 alpha a   ---  Virt.   22 alpha a    0.05339 Y
     Occ.   20 alpha a   ---  Virt.   23 alpha a    0.42959 X
     Occ.   20 alpha a   ---  Virt.   23 alpha a   -0.05132 Y
     Occ.   20 alpha a   ---  Virt.   29 alpha a   -0.14169 X
     Occ.   21 alpha a   ---  Virt.   25 alpha a    0.07491 X
     Occ.   21 alpha a   ---  Virt.   27 alpha a   -0.37547 X
     Occ.   13 beta  a   ---  Virt.   21 beta  a    0.12804 X
     Occ.   15 beta  a   ---  Virt.   21 beta  a    0.27402 X
     Occ.   19 beta  a   ---  Virt.   24 beta  a    0.50172 X
     Occ.   19 beta  a   ---  Virt.   29 beta  a   -0.14010 X
     Occ.   20 beta  a   ---  Virt.   22 beta  a   -0.35040 X
     Occ.   20 beta  a   ---  Virt.   22 beta  a    0.05639 Y
  ----------------------------------------------------------------------------
  Root  31         a              0.255198454 a.u.                6.9443 eV 
  <S2> =   0.8010
  ----------------------------------------------------------------------------
     Transition Moments    X -0.04042   Y  0.63318   Z  0.00000
     Transition Moments   XX  0.65827  XY -0.07760  XZ -0.00002
     Transition Moments   YY  1.88546  YZ  0.00003  ZZ  0.14713
     Dipole Oscillator Strength                    0.0684864623
     Electric Quadrupole                           0.0000000712
     Magnetic Dipole                               0.0000000000
     Total Oscillator Strength                     0.0684865335
 
     Occ.   19 alpha a   ---  Virt.   23 alpha a   -0.10523 X
     Occ.   20 alpha a   ---  Virt.   22 alpha a   -0.11375 X
     Occ.   21 alpha a   ---  Virt.   26 alpha a   -0.18398 X
     Occ.   21 alpha a   ---  Virt.   28 alpha a    0.91060 X
     Occ.   21 alpha a   ---  Virt.   30 alpha a    0.12892 X
     Occ.   21 alpha a   ---  Virt.   31 alpha a    0.16303 X
     Occ.   21 alpha a   ---  Virt.   48 alpha a   -0.05668 X
     Occ.   16 beta  a   ---  Virt.   21 beta  a   -0.18665 X
     Occ.   19 beta  a   ---  Virt.   22 beta  a   -0.10841 X
     Occ.   20 beta  a   ---  Virt.   24 beta  a   -0.09615 X
  ----------------------------------------------------------------------------
  Root  32         a              0.260540137 a.u.                7.0897 eV 
  <S2> =   0.8001
  ----------------------------------------------------------------------------
     Transition Moments    X  0.00001   Y -0.00001   Z  0.09525
     Transition Moments   XX -0.00001  XY -0.00001  XZ -0.04430
     Transition Moments   YY -0.00003  YZ  0.70320  ZZ  0.00000
     Dipole Oscillator Strength                    0.0015758112
     Electric Quadrupole                           0.0000000468
     Magnetic Dipole                               0.0000000327
     Total Oscillator Strength                     0.0015758906
 
     Occ.   21 alpha a   ---  Virt.   29 alpha a   -0.97946 X
     Occ.   21 alpha a   ---  Virt.   33 alpha a   -0.17982 X
  ----------------------------------------------------------------------------
  Root  33         a              0.265499867 a.u.                7.2246 eV 
  <S2> =   1.7811
  ----------------------------------------------------------------------------
     Transition Moments    X  0.00001   Y  0.00001   Z  0.00000
     Transition Moments   XX -0.00006  XY  0.00002  XZ  0.54580
     Transition Moments   YY -0.00003  YZ  0.03438  ZZ -0.00004
     Dipole Oscillator Strength                    0.0000000000
     Electric Quadrupole                           0.0000000298
     Magnetic Dipole                               0.0000000005
     Total Oscillator Strength                     0.0000000304
 
     Occ.   20 beta  a   ---  Virt.   27 beta  a    0.99105 X
     Occ.   20 beta  a   ---  Virt.   38 beta  a   -0.09636 X
  ----------------------------------------------------------------------------
  Root  34         a              0.267130140 a.u.                7.2690 eV 
  <S2> =   0.8181
  ----------------------------------------------------------------------------
     Transition Moments    X  0.07525   Y -1.19267   Z  0.00000
     Transition Moments   XX -0.01123  XY -0.04577  XZ  0.00001
     Transition Moments   YY  0.71208  YZ  0.00006  ZZ  0.04575
     Dipole Oscillator Strength                    0.2543309230
     Electric Quadrupole                           0.0000000166
     Magnetic Dipole                               0.0000000000
     Total Oscillator Strength                     0.2543309397
 
     Occ.   17 alpha a   ---  Virt.   23 alpha a   -0.08476 X
     Occ.   19 alpha a   ---  Virt.   23 alpha a    0.30537 X
     Occ.   19 alpha a   ---  Virt.   29 alpha a    0.16027 X
     Occ.   20 alpha a   ---  Virt.   22 alpha a    0.22199 X
     Occ.   21 alpha a   ---  Virt.   28 alpha a    0.29922 X
     Occ.   21 alpha a   ---  Virt.   30 alpha a   -0.44428 X
     Occ.   21 alpha a   ---  Virt.   31 alpha a    0.08334 X
     Occ.   14 beta  a   ---  Virt.   21 beta  a   -0.08645 X
     Occ.   16 beta  a   ---  Virt.   21 beta  a    0.49747 X
     Occ.   19 beta  a   ---  Virt.   22 beta  a    0.22223 X
     Occ.   20 beta  a   ---  Virt.   24 beta  a    0.30756 X
     Occ.   20 beta  a   ---  Virt.   29 beta  a    0.33238 X
  ----------------------------------------------------------------------------
  Root  35         a              0.270709582 a.u.                7.3664 eV 
  <S2> =   2.7069
  ----------------------------------------------------------------------------
     Transition Moments    X  0.00000   Y  0.00001   Z  0.00936
     Transition Moments   XX -0.00001  XY  0.00001  XZ -0.00921
     Transition Moments   YY -0.00002  YZ  0.14567  ZZ  0.00000
     Dipole Oscillator Strength                    0.0000158043
     Electric Quadrupole                           0.0000000023
     Magnetic Dipole                               0.0000000000
     Total Oscillator Strength                     0.0000158066
 
     Occ.   20 alpha a   ---  Virt.   27 alpha a   -0.79530 X
     Occ.   20 alpha a   ---  Virt.   38 alpha a    0.08765 X
     Occ.   19 beta  a   ---  Virt.   27 beta  a    0.58017 X
     Occ.   19 beta  a   ---  Virt.   38 beta  a   -0.06842 X
     Occ.   20 beta  a   ---  Virt.   30 beta  a    0.05954 X
  ----------------------------------------------------------------------------
  Root  36         a              0.271169907 a.u.                7.3789 eV 
  <S2> =   2.7408
  ----------------------------------------------------------------------------
     Transition Moments    X  0.04904   Y  0.00304   Z -0.00000
     Transition Moments   XX  0.00391  XY -0.02962  XZ  0.00001
     Transition Moments   YY -0.00387  YZ -0.00003  ZZ  0.00004
     Dipole Oscillator Strength                    0.0004363966
     Electric Quadrupole                           0.0000000001
     Magnetic Dipole                               0.0000000018
     Total Oscillator Strength                     0.0004363985
 
     Occ.   17 alpha a   ---  Virt.   22 alpha a    0.59782 X
     Occ.   17 alpha a   ---  Virt.   41 alpha a   -0.05232 X
     Occ.   19 alpha a   ---  Virt.   32 alpha a   -0.08361 X
     Occ.   20 alpha a   ---  Virt.   29 alpha a    0.16470 X
     Occ.   20 alpha a   ---  Virt.   44 alpha a   -0.22728 X
     Occ.   20 alpha a   ---  Virt.   47 alpha a    0.17399 X
     Occ.   17 beta  a   ---  Virt.   22 beta  a   -0.64478 X
     Occ.   17 beta  a   ---  Virt.   41 beta  a    0.05424 X
     Occ.   19 beta  a   ---  Virt.   29 beta  a   -0.10243 X
     Occ.   19 beta  a   ---  Virt.   44 beta  a    0.20042 X
     Occ.   19 beta  a   ---  Virt.   47 beta  a   -0.16652 X
     Occ.   20 beta  a   ---  Virt.   31 beta  a    0.10120 X
  ----------------------------------------------------------------------------
  Root  37         a              0.271652981 a.u.                7.3921 eV 
  <S2> =   1.0125
  ----------------------------------------------------------------------------
     Transition Moments    X  0.03530   Y -0.55994   Z  0.00000
     Transition Moments   XX  1.08174  XY  0.11652  XZ -0.00000
     Transition Moments   YY -0.75998  YZ -0.00002  ZZ  0.24685
     Dipole Oscillator Strength                    0.0570079983
     Electric Quadrupole                           0.0000000922
     Magnetic Dipole                               0.0000000000
     Total Oscillator Strength                     0.0570080905
 
     Occ.   17 alpha a   ---  Virt.   23 alpha a   -0.06785 X
     Occ.   19 alpha a   ---  Virt.   23 alpha a    0.10591 X
     Occ.   20 alpha a   ---  Virt.   22 alpha a    0.05231 X
     Occ.   21 alpha a   ---  Virt.   30 alpha a    0.79953 X
     Occ.   21 alpha a   ---  Virt.   31 alpha a   -0.21080 X
     Occ.   21 alpha a   ---  Virt.   35 alpha a    0.07705 X
     Occ.   21 alpha a   ---  Virt.   40 alpha a   -0.05712 X
     Occ.   14 beta  a   ---  Virt.   21 beta  a   -0.06749 X
     Occ.   16 beta  a   ---  Virt.   21 beta  a    0.20910 X
     Occ.   19 beta  a   ---  Virt.   22 beta  a    0.06819 X
     Occ.   20 beta  a   ---  Virt.   24 beta  a    0.11035 X
     Occ.   20 beta  a   ---  Virt.   29 beta  a    0.45881 X
  ----------------------------------------------------------------------------
  Root  38         a              0.271707350 a.u.                7.3935 eV 
  <S2> =   0.8168
  ----------------------------------------------------------------------------
     Transition Moments    X  0.00001   Y -0.00006   Z  0.02417
     Transition Moments   XX  0.00012  XY  0.00007  XZ -0.05412
     Transition Moments   YY -0.00015  YZ  0.85770  ZZ  0.00004
     Dipole Oscillator Strength                    0.0001057889
     Electric Quadrupole                           0.0000000789
     Magnetic Dipole                               0.0000000041
     Total Oscillator Strength                     0.0001058719
 
     Occ.   20 alpha a   ---  Virt.   27 alpha a   -0.58105 X
     Occ.   19 beta  a   ---  Virt.   27 beta  a   -0.80012 X
     Occ.   19 beta  a   ---  Virt.   38 beta  a    0.07474 X
     Occ.   20 beta  a   ---  Virt.   28 beta  a    0.09415 X
  ----------------------------------------------------------------------------
  Root  39         a              0.272356240 a.u.                7.4112 eV 
  <S2> =   1.7258
  ----------------------------------------------------------------------------
     Transition Moments    X -0.00001   Y  0.00001   Z -0.00002
     Transition Moments   XX  0.00006  XY -0.00002  XZ -0.54870
     Transition Moments   YY  0.00001  YZ -0.03480  ZZ  0.00003
     Dipole Oscillator Strength                    0.0000000001
     Electric Quadrupole                           0.0000000325
     Magnetic Dipole                               0.0000000013
     Total Oscillator Strength                     0.0000000339
 
     Occ.   19 alpha a   ---  Virt.   27 alpha a   -0.99020 X
     Occ.   19 alpha a   ---  Virt.   38 alpha a    0.09576 X
  ----------------------------------------------------------------------------
  Root  40         a              0.272631662 a.u.                7.4187 eV 
  <S2> =   1.9742
  ----------------------------------------------------------------------------
     Transition Moments    X  0.00001   Y -0.00003   Z -0.04259
     Transition Moments   XX -0.00003  XY -0.00003  XZ  0.02966
     Transition Moments   YY -0.00005  YZ -0.46928  ZZ -0.00001
     Dipole Oscillator Strength                    0.0003297356
     Electric Quadrupole                           0.0000000239
     Magnetic Dipole                               0.0000000050
     Total Oscillator Strength                     0.0003297644
 
     Occ.   19 alpha a   ---  Virt.   28 alpha a    0.11859 X
     Occ.   20 alpha a   ---  Virt.   27 alpha a   -0.10187 X
     Occ.   17 beta  a   ---  Virt.   21 beta  a    0.05522 X
     Occ.   20 beta  a   ---  Virt.   28 beta  a   -0.97359 X
     Occ.   20 beta  a   ---  Virt.   30 beta  a   -0.05536 X
     Occ.   20 beta  a   ---  Virt.   32 beta  a   -0.07500 X
     Occ.   20 beta  a   ---  Virt.   43 beta  a   -0.08164 X
 
              Target root =      1
          Target symmetry = none
      Ground state energy =   -231.646318753841
        Excitation energy =      0.106515044808
     Excited state energy =   -231.539803709033
 
  stored tddft:energy   -231.539803709033     

 Task  times  cpu:     2972.8s     wall:     3087.4s
 
 
                                NWChem Input Module
                                -------------------
 
 
 Summary of allocated global arrays
-----------------------------------
  No active global arrays



                         GA Statistics for process    0
                         ------------------------------

       create   destroy   get      put      acc     scatter   gather  read&inc
calls: 9601     9601     1.13e+07 4.29e+06 2.77e+06 5660        0      378     
number of processes/call 1.28e+00 1.71e+00 1.93e+00 0.00e+00 0.00e+00
bytes total:             1.01e+11 1.17e+10 1.00e+11 6.26e+04 0.00e+00 3.02e+03
bytes remote:            7.49e+10 1.11e+09 9.58e+10 0.00e+00 0.00e+00 0.00e+00
Max memory consumed for GA by this process: 205086464 bytes
 
MA_summarize_allocated_blocks: starting scan ...
MA_summarize_allocated_blocks: scan completed: 0 heap blocks, 0 stack blocks
MA usage statistics:

	allocation statistics:
					      heap	     stack
					      ----	     -----
	current number of blocks	         0	         0
	maximum number of blocks	        20	        52
	current total bytes		         0	         0
	maximum total bytes		   1165984	  68276424
	maximum total K-bytes		      1166	     68277
	maximum total M-bytes		         2	        69
 
 
                                     CITATION
                                     --------
                Please cite the following reference when publishing
                           results obtained with NWChem:
 
                 M. Valiev, E.J. Bylaska, N. Govind, K. Kowalski,
              T.P. Straatsma, H.J.J. van Dam, D. Wang, J. Nieplocha,
                        E. Apra, T.L. Windus, W.A. de Jong
                 "NWChem: a comprehensive and scalable open-source
                  solution for large scale molecular simulations"
                      Comput. Phys. Commun. 181, 1477 (2010)
                           doi:10.1016/j.cpc.2010.04.018
 
                                      AUTHORS
                                      -------
          E. Apra, E. J. Bylaska, W. A. de Jong, N. Govind, K. Kowalski,
       T. P. Straatsma, M. Valiev, H. J. J. van Dam, D. Wang, T. L. Windus,
        J. Hammond, J. Autschbach, K. Bhaskaran-Nair, J. Brabec, K. Lopata,
    S. A. Fischer, S. Krishnamoorthy, M. Jacquelin, W. Ma, M. Klemm, O. Villa,
      Y. Chen, V. Anisimov, F. Aquino, S. Hirata, M. T. Hackler, V. Konjkov,
            D. Mejia-Rodriguez, T. Risthaus, M. Malagoli, A. Marenich,
   A. Otero-de-la-Roza, J. Mullin, P. Nichols, R. Peverati, J. Pittner, Y. Zhao,
        P.-D. Fan, A. Fonari, M. J. Williamson, R. J. Harrison, J. R. Rehr,
      M. Dupuis, D. Silverstein, D. M. A. Smith, J. Nieplocha, V. Tipparaju,
    M. Krishnan, B. E. Van Kuiken, A. Vazquez-Mayagoitia, L. Jensen, M. Swart,
      Q. Wu, T. Van Voorhis, A. A. Auer, M. Nooijen, L. D. Crosby, E. Brown,
      G. Cisneros, G. I. Fann, H. Fruchtl, J. Garza, K. Hirao, R. A. Kendall,
      J. A. Nichols, K. Tsemekhman, K. Wolinski, J. Anchell, D. E. Bernholdt,
      P. Borowski, T. Clark, D. Clerc, H. Dachsel, M. J. O. Deegan, K. Dyall,
    D. Elwood, E. Glendening, M. Gutowski, A. C. Hess, J. Jaffe, B. G. Johnson,
     J. Ju, R. Kobayashi, R. Kutteh, Z. Lin, R. Littlefield, X. Long, B. Meng,
      T. Nakajima, S. Niu, L. Pollack, M. Rosing, K. Glaesemann, G. Sandrone,
      M. Stave, H. Taylor, G. Thomas, J. H. van Lenthe, A. T. Wong, Z. Zhang.

 Total times  cpu:     2972.8s     wall:     3088.4s
