 argument  1 = /storage/home/j/jbb5516/normalModes/mode1464.22-m.nw
 


============================== echo of input deck ==============================
echo
start

title "None"

geometry
C    -0.08666538    1.38835551    0.00000005
C    -1.26773504    0.69131379   -0.00000002
C    -1.16745814   -0.70530880   -0.00000002
C     0.08385332   -1.31592987    0.00000004
C     1.24635914   -0.55203763   -0.00000001
C     1.17023445    0.84448699    0.00000005
H    -2.23257557    1.18062634   -0.00000010
H    -2.06902916   -1.30465275   -0.00000009
H     0.14697395   -2.39562293    0.00000000
H     2.21370323   -1.03777228   -0.00000013
H     2.06530325    1.45188794   -0.00000010
symmetry c1
end

basis spherical
 * library "aug-cc-pvtz"
end

dft
 direct
 mult 2
 iterations 500
 xc b3lyp
end

tddft
 nroots 40
 notriplet
 algorithm 1
end
task tddft energy
================================================================================


                                         
                                         
 
 
              Northwest Computational Chemistry Package (NWChem) 6.8
              ------------------------------------------------------
 
 
                    Environmental Molecular Sciences Laboratory
                       Pacific Northwest National Laboratory
                                Richland, WA 99352
 
                              Copyright (c) 1994-2017
                       Pacific Northwest National Laboratory
                            Battelle Memorial Institute
 
             NWChem is an open-source computational chemistry package
                        distributed under the terms of the
                      Educational Community License (ECL) 2.0
             A copy of the license is included with this distribution
                              in the LICENSE.TXT file
 
                                  ACKNOWLEDGMENT
                                  --------------

            This software and its documentation were developed at the
            EMSL at Pacific Northwest National Laboratory, a multiprogram
            national laboratory, operated for the U.S. Department of Energy
            by Battelle under Contract Number DE-AC05-76RL01830. Support
            for this work was provided by the Department of Energy Office
            of Biological and Environmental Research, Office of Basic
            Energy Sciences, and the Office of Advanced Scientific Computing.


           Job information
           ---------------

    hostname        = comp-sc-0112.acib.production.int.aci.ics.psu.edu
    program         = /gpfs/group/lxj18/default/jeffprograms/nwchem-6.8.1/bin/LINUX64/nwchem
    date            = Sun Sep 20 16:24:27 2020

    compiled        = Wed_Oct_03_14:08:39_2018
    source          = /gpfs/group/lxj18/default/jeffprograms/nwchem-6.8.1
    nwchem branch   = 6.8.1
    nwchem revision = v6.8-143-gdb0d964
    ga revision     = 5.6.5
    use scalapack   = F
    input           = /storage/home/j/jbb5516/normalModes/mode1464.22-m.nw
    prefix          = mode1464.22-m.
    data base       = ./mode1464.22-m.db
    status          = startup
    nproc           =       20
    time left       =     -1s



           Memory information
           ------------------

    heap     =   13107198 doubles =    100.0 Mbytes
    stack    =   13107195 doubles =    100.0 Mbytes
    global   =   26214400 doubles =    200.0 Mbytes (distinct from heap & stack)
    total    =   52428793 doubles =    400.0 Mbytes
    verify   = yes
    hardfail = no 


           Directory information
           ---------------------
 
  0 permanent = .
  0 scratch   = .
 
 
 
 
                                NWChem Input Module
                                -------------------
 
 
                                       None
                                       ----

 Scaling coordinates for geometry "geometry" by  1.889725989
 (inverse scale =  0.529177249)

 Turning off AUTOSYM since
 SYMMETRY directive was detected!
 

          ------
          auto-z
          ------
 
 
                             Geometry "geometry" -> ""
                             -------------------------
 
 Output coordinates in angstroms (scale by  1.889725989 to convert to a.u.)
 
  No.       Tag          Charge          X              Y              Z
 ---- ---------------- ---------- -------------- -------------- --------------
    1 C                    6.0000    -0.08656552     1.38836170     0.00000005
    2 C                    6.0000    -1.26763518     0.69131998    -0.00000002
    3 C                    6.0000    -1.16735828    -0.70530261    -0.00000002
    4 C                    6.0000     0.08395318    -1.31592368     0.00000004
    5 C                    6.0000     1.24645900    -0.55203144    -0.00000001
    6 C                    6.0000     1.17033431     0.84449318     0.00000005
    7 H                    1.0000    -2.23247571     1.18063253    -0.00000010
    8 H                    1.0000    -2.06892930    -1.30464656    -0.00000009
    9 H                    1.0000     0.14707381    -2.39561674    -0.00000000
   10 H                    1.0000     2.21380309    -1.03776609    -0.00000013
   11 H                    1.0000     2.06540311     1.45189413    -0.00000010
 
      Atomic Mass 
      ----------- 
 
      C                 12.000000
      H                  1.007825
 

 Effective nuclear repulsion energy (a.u.)     195.0639890159

            Nuclear Dipole moment (a.u.) 
            ----------------------------
        X                 Y               Z
 ---------------- ---------------- ----------------
    -0.0000000000     0.0000000000     0.0000000000
 


                                Z-matrix (autoz)
                                -------- 

 Units are Angstrom for bonds and degrees for angles
 
      Type          Name      I     J     K     L     M      Value
      ----------- --------  ----- ----- ----- ----- ----- ----------
    1 Stretch                  1     2                       1.37142
    2 Stretch                  1     6                       1.36952
    3 Stretch                  2     3                       1.40022
    4 Stretch                  2     7                       1.08182
    5 Stretch                  3     4                       1.39235
    6 Stretch                  3     8                       1.08261
    7 Stretch                  4     5                       1.39103
    8 Stretch                  4     9                       1.08154
    9 Stretch                  5     6                       1.39860
   10 Stretch                  5    10                       1.08245
   11 Stretch                  6    11                       1.08170
   12 Bend                     1     2     3               116.44142
   13 Bend                     1     2     7               122.56027
   14 Bend                     1     6     5               116.51855
   15 Bend                     1     6    11               122.44043
   16 Bend                     2     1     6               126.05338
   17 Bend                     2     3     4               120.11844
   18 Bend                     2     3     8               119.50829
   19 Bend                     3     2     7               120.99831
   20 Bend                     3     4     5               120.67908
   21 Bend                     3     4     9               119.35747
   22 Bend                     4     3     8               120.37327
   23 Bend                     4     5     6               120.18914
   24 Bend                     4     5    10               120.02805
   25 Bend                     5     4     9               119.96345
   26 Bend                     5     6    11               121.04102
   27 Bend                     6     5    10               119.78281
   28 Torsion                  1     2     3     4           0.00000
   29 Torsion                  1     2     3     8        -180.00000
   30 Torsion                  1     6     5     4           0.00000
   31 Torsion                  1     6     5    10         180.00000
   32 Torsion                  2     1     6     5           0.00000
   33 Torsion                  2     1     6    11         180.00000
   34 Torsion                  2     3     4     5           0.00000
   35 Torsion                  2     3     4     9        -180.00000
   36 Torsion                  3     2     1     6           0.00000
   37 Torsion                  3     4     5     6           0.00000
   38 Torsion                  3     4     5    10        -180.00000
   39 Torsion                  4     3     2     7         180.00000
   40 Torsion                  4     5     6    11        -180.00000
   41 Torsion                  5     4     3     8         180.00000
   42 Torsion                  6     1     2     7        -180.00000
   43 Torsion                  6     5     4     9        -180.00000
   44 Torsion                  7     2     3     8           0.00000
   45 Torsion                  8     3     4     9           0.00000
   46 Torsion                  9     4     5    10           0.00000
   47 Torsion                 10     5     6    11           0.00000
 
 
            XYZ format geometry
            -------------------
    11
 geometry
 C                    -0.08656552     1.38836170     0.00000005
 C                    -1.26763518     0.69131998    -0.00000002
 C                    -1.16735828    -0.70530261    -0.00000002
 C                     0.08395318    -1.31592368     0.00000004
 C                     1.24645900    -0.55203144    -0.00000001
 C                     1.17033431     0.84449318     0.00000005
 H                    -2.23247571     1.18063253    -0.00000010
 H                    -2.06892930    -1.30464656    -0.00000009
 H                     0.14707381    -2.39561674    -0.00000000
 H                     2.21380309    -1.03776609    -0.00000013
 H                     2.06540311     1.45189413    -0.00000010
 
 ==============================================================================
                                internuclear distances
 ------------------------------------------------------------------------------
       center one      |      center two      | atomic units |  angstroms
 ------------------------------------------------------------------------------
    2 C                |   1 C                |     2.59161  |     1.37142
    3 C                |   2 C                |     2.64603  |     1.40022
    4 C                |   3 C                |     2.63116  |     1.39235
    5 C                |   4 C                |     2.62866  |     1.39103
    6 C                |   1 C                |     2.58802  |     1.36952
    6 C                |   5 C                |     2.64297  |     1.39860
    7 H                |   2 C                |     2.04435  |     1.08182
    8 H                |   3 C                |     2.04584  |     1.08261
    9 H                |   4 C                |     2.04381  |     1.08154
   10 H                |   5 C                |     2.04553  |     1.08245
   11 H                |   6 C                |     2.04412  |     1.08170
 ------------------------------------------------------------------------------
                         number of included internuclear distances:         11
 ==============================================================================



 ==============================================================================
                                 internuclear angles
 ------------------------------------------------------------------------------
        center 1       |       center 2       |       center 3       |  degrees
 ------------------------------------------------------------------------------
    2 C                |   1 C                |   6 C                |   126.05
    1 C                |   2 C                |   3 C                |   116.44
    1 C                |   2 C                |   7 H                |   122.56
    3 C                |   2 C                |   7 H                |   121.00
    2 C                |   3 C                |   4 C                |   120.12
    2 C                |   3 C                |   8 H                |   119.51
    4 C                |   3 C                |   8 H                |   120.37
    3 C                |   4 C                |   5 C                |   120.68
    3 C                |   4 C                |   9 H                |   119.36
    5 C                |   4 C                |   9 H                |   119.96
    4 C                |   5 C                |   6 C                |   120.19
    4 C                |   5 C                |  10 H                |   120.03
    6 C                |   5 C                |  10 H                |   119.78
    1 C                |   6 C                |   5 C                |   116.52
    1 C                |   6 C                |  11 H                |   122.44
    5 C                |   6 C                |  11 H                |   121.04
 ------------------------------------------------------------------------------
                            number of included internuclear angles:         16
 ==============================================================================





 Summary of "ao basis" -> "" (spherical)
 ------------------------------------------------------------------------------
       Tag                 Description            Shells   Functions and Types
 ---------------- ------------------------------  ------  ---------------------
 *                        aug-cc-pvtz                 on all atoms 


 
                                 NWChem DFT Module
                                 -----------------
 
 
                                       None
 
 
                      Basis "ao basis" -> "ao basis" (spherical)
                      -----
  C (Carbon)
  ----------
            Exponent  Coefficients 
       -------------- ---------------------------------------------------------
  1 S  8.23600000E+03  0.000531
  1 S  1.23500000E+03  0.004108
  1 S  2.80800000E+02  0.021087
  1 S  7.92700000E+01  0.081853
  1 S  2.55900000E+01  0.234817
  1 S  8.99700000E+00  0.434401
  1 S  3.31900000E+00  0.346129
  1 S  3.64300000E-01 -0.008983
 
  2 S  8.23600000E+03 -0.000113
  2 S  1.23500000E+03 -0.000878
  2 S  2.80800000E+02 -0.004540
  2 S  7.92700000E+01 -0.018133
  2 S  2.55900000E+01 -0.055760
  2 S  8.99700000E+00 -0.126895
  2 S  3.31900000E+00 -0.170352
  2 S  3.64300000E-01  0.598684
 
  3 S  9.05900000E-01  1.000000
 
  4 S  1.28500000E-01  1.000000
 
  5 S  4.40200000E-02  1.000000
 
  6 P  1.87100000E+01  0.014031
  6 P  4.13300000E+00  0.086866
  6 P  1.20000000E+00  0.290216
 
  7 P  3.82700000E-01  1.000000
 
  8 P  1.20900000E-01  1.000000
 
  9 P  3.56900000E-02  1.000000
 
 10 D  1.09700000E+00  1.000000
 
 11 D  3.18000000E-01  1.000000
 
 12 D  1.00000000E-01  1.000000
 
 13 F  7.61000000E-01  1.000000
 
 14 F  2.68000000E-01  1.000000
 
  H (Hydrogen)
  ------------
            Exponent  Coefficients 
       -------------- ---------------------------------------------------------
  1 S  3.38700000E+01  0.006068
  1 S  5.09500000E+00  0.045308
  1 S  1.15900000E+00  0.202822
 
  2 S  3.25800000E-01  1.000000
 
  3 S  1.02700000E-01  1.000000
 
  4 S  2.52600000E-02  1.000000
 
  5 P  1.40700000E+00  1.000000
 
  6 P  3.88000000E-01  1.000000
 
  7 P  1.02000000E-01  1.000000
 
  8 D  1.05700000E+00  1.000000
 
  9 D  2.47000000E-01  1.000000
 


 Summary of "ao basis" -> "ao basis" (spherical)
 ------------------------------------------------------------------------------
       Tag                 Description            Shells   Functions and Types
 ---------------- ------------------------------  ------  ---------------------
 C                        aug-cc-pvtz               14       46   5s4p3d2f
 H                        aug-cc-pvtz                9       23   4s3p2d




 Summary of "ao basis" -> "ao basis" (spherical)
 ------------------------------------------------------------------------------
       Tag                 Description            Shells   Functions and Types
 ---------------- ------------------------------  ------  ---------------------
 C                        aug-cc-pvtz               14       46   5s4p3d2f
 H                        aug-cc-pvtz                9       23   4s3p2d


  Caching 1-el integrals 
 
            General Information
            -------------------
          SCF calculation type: DFT
          Wavefunction type:  spin polarized.
          No. of atoms     :    11
          No. of electrons :    41
           Alpha electrons :    21
            Beta electrons :    20
          Charge           :     0
          Spin multiplicity:     2
          Use of symmetry is: off; symmetry adaption is: off
          Maximum number of iterations: 500
          This is a Direct SCF calculation.
          AO basis - number of functions:   391
                     number of shells:   129
          Convergence on energy requested:  1.00D-06
          Convergence on density requested:  1.00D-05
          Convergence on gradient requested:  5.00D-04
 
              XC Information
              --------------
                         B3LYP Method XC Potential
                     Hartree-Fock (Exact) Exchange  0.200          
                        Slater Exchange Functional  0.800 local    
                    Becke 1988 Exchange Functional  0.720 non-local
              Lee-Yang-Parr Correlation Functional  0.810          
                  VWN I RPA Correlation Functional  0.190 local    
 
             Grid Information
             ----------------
          Grid used for XC integration:  medium    
          Radial quadrature: Mura-Knowles        
          Angular quadrature: Lebedev. 
          Tag              B.-S. Rad. Rad. Pts. Rad. Cut. Ang. Pts.
          ---              ---------- --------- --------- ---------
          C                   0.70       49          15.0       434
          H                   0.35       45          17.0       434
          Grid pruning is: on 
          Number of quadrature shells:   519
          Spatial weights used:  Erf1
 
          Convergence Information
          -----------------------
          Convergence aids based upon iterative change in 
          total energy or number of iterations. 
          Levelshifting, if invoked, occurs when the 
          HOMO/LUMO gap drops below (HL_TOL):  1.00D-02
          DIIS, if invoked, will attempt to extrapolate 
          using up to (NFOCK): 10 stored Fock matrices.

                    Damping( 0%)  Levelshifting(0.5)       DIIS
                  --------------- ------------------- ---------------
          dE  on:    start            ASAP                start   
          dE off:    2 iters        500 iters           500 iters 

 
      Screening Tolerance Information
      -------------------------------
          Density screening/tol_rho:  1.00D-10
          AO Gaussian exp screening on grid/accAOfunc:  14
          CD Gaussian exp screening on grid/accCDfunc:  20
          XC Gaussian exp screening on grid/accXCfunc:  20
          Schwarz screening/accCoul:  1.00D-08

 
 WARNING : Found     7 linear dependencies 
 S eigenvalue threshold:     1.00000E-05
 Smallest S eigenvalue :     1.46405E-06
 Largest  S eigenvalue :     7.76651E-06
 

 !! The overlap matrix has   7 vectors deemed linearly dependent with
    eigenvalues:
 1.46D-06 2.24D-06 2.83D-06 3.54D-06 5.27D-06 5.95D-06 7.77D-06
 
 
      Superposition of Atomic Density Guess
      -------------------------------------
 
 Sum of atomic energies:        -228.52307259
 
      Non-variational initial energy
      ------------------------------

 Total energy =    -232.667208
 1-e energy   =    -691.328493
 2-e energy   =     263.597296
 HOMO         =      -0.183326
 LUMO         =      -0.022268
 
   Time after variat. SCF:     10.2
   Time prior to 1st pass:     10.2

 Grid_pts file          = ./mode1464.22-m.gridpts.00
 Record size in doubles =  12289        No. of grid_pts per rec  =   3070
 Max. records in memory =      6        Max. recs in file   = 220447468

 Grid integrated density:      40.999765441505
 Requested integration accuracy:   0.10E-05

           Memory utilization after 1st SCF pass: 
           Heap Space remaining (MW):       12.96            12961278
          Stack Space remaining (MW):       13.10            13103676

   convergence    iter        energy       DeltaE   RMS-Dens  Diis-err    time
 ---------------- ----- ----------------- --------- --------- ---------  ------
 d= 0,ls=0.0,diis     1   -231.5817681338 -4.27D+02  6.31D-02  2.09D-01    21.0
                                                     7.12D-02  1.96D-01
 d= 0,ls=0.0,diis     2   -231.6397827024 -5.80D-02  6.22D-02  1.23D-02    31.8
                                                     7.01D-02  1.26D-02
 d= 0,ls=0.0,diis     3   -231.6446025503 -4.82D-03  1.29D-03  3.44D-03    42.5
                                                     1.40D-03  3.50D-03
 d= 0,ls=0.0,diis     4   -231.6457521929 -1.15D-03  2.05D-04  1.14D-03    53.3
                                                     2.09D-04  1.08D-03
 d= 0,ls=0.0,diis     5   -231.6462775302 -5.25D-04  3.39D-05  4.48D-05    64.0
                                                     3.12D-05  5.07D-05
  Resetting Diis
 d= 0,ls=0.0,diis     6   -231.6463054418 -2.79D-05  1.09D-05  1.00D-05    74.8
                                                     1.05D-05  8.44D-06
 d= 0,ls=0.0,diis     7   -231.6463124990 -7.06D-06  7.93D-06  2.52D-06    85.6
                                                     7.22D-06  2.66D-06
 d= 0,ls=0.0,diis     8   -231.6463130574 -5.58D-07  3.20D-06  6.99D-06    96.3
                                                     2.96D-06  6.44D-06


         Total DFT energy =     -231.646313057396
      One electron energy =     -696.563148442010
           Coulomb energy =      304.262106865565
    Exchange-Corr. energy =      -34.409260496831
 Nuclear repulsion energy =      195.063989015880

 Numeric. integr. density =       40.999984413077

     Total iterative time =     86.2s


 
                    DFT Final Alpha Molecular Orbital Analysis
                    ------------------------------------------
 
 Vector    1  Occ=1.000000D+00  E=-1.020521D+01
              MO Center= -8.7D-02,  1.4D+00,  4.8D-08, r^2= 3.0D-02
   Bfn.  Coefficient  Atom+Function         Bfn.  Coefficient  Atom+Function  
  ----- ------------  ---------------      ----- ------------  ---------------
     1      0.984157   1 C  s                 3      0.058846   1 C  s         
   234     -0.038960   6 C  s               371      0.038033  11 H  s         
    50     -0.037827   2 C  s               143      0.037886   4 C  s         
   279      0.037870   7 H  s               235     -0.031003   6 C  s         
    51     -0.030348   2 C  s                47      0.025525   2 C  s         
 
 Vector    2  Occ=1.000000D+00  E=-1.019186D+01
              MO Center= -1.1D+00, -6.3D-01, -2.4D-08, r^2= 2.1D-01
   Bfn.  Coefficient  Atom+Function         Bfn.  Coefficient  Atom+Function  
  ----- ------------  ---------------      ----- ------------  ---------------
    93      0.952660   3 C  s                47      0.222432   2 C  s         
   185      0.119258   5 C  s               142     -0.078440   4 C  s         
   302      0.058606   8 H  s                95      0.056925   3 C  s         
   234      0.050510   6 C  s               139      0.046981   4 C  s         
   371     -0.040875  11 H  s               325      0.039853   9 H  s         
 
 Vector    3  Occ=1.000000D+00  E=-1.019178D+01
              MO Center=  1.2D+00, -4.9D-01, -1.2D-08, r^2= 2.0D-01
   Bfn.  Coefficient  Atom+Function         Bfn.  Coefficient  Atom+Function  
  ----- ------------  ---------------      ----- ------------  ---------------
   185      0.956113   5 C  s               231      0.207803   6 C  s         
    93     -0.113292   3 C  s               142     -0.060805   4 C  s         
   348      0.060549  10 H  s                50      0.057412   2 C  s         
   187      0.057056   5 C  s               279     -0.047531   7 H  s         
    51      0.046782   2 C  s                47     -0.045860   2 C  s         
 
 Vector    4  Occ=1.000000D+00  E=-1.019053D+01
              MO Center= -1.3D+00,  6.2D-01, -2.3D-08, r^2= 1.3D-01
   Bfn.  Coefficient  Atom+Function         Bfn.  Coefficient  Atom+Function  
  ----- ------------  ---------------      ----- ------------  ---------------
    47      0.958972   2 C  s                93     -0.223126   3 C  s         
   279      0.058368   7 H  s                49      0.055747   2 C  s         
   189      0.039025   5 C  s               188      0.034313   5 C  s         
   143      0.032604   4 C  s                12      0.030109   1 C  px        
    97     -0.030199   3 C  s                 4     -0.029336   1 C  s         
 
 Vector    5  Occ=1.000000D+00  E=-1.019033D+01
              MO Center=  1.2D+00,  7.8D-01,  4.5D-08, r^2= 1.2D-01
   Bfn.  Coefficient  Atom+Function         Bfn.  Coefficient  Atom+Function  
  ----- ------------  ---------------      ----- ------------  ---------------
   231      0.963157   6 C  s               185     -0.204802   5 C  s         
   371      0.058554  11 H  s               233      0.056059   6 C  s         
    97      0.039995   3 C  s                96      0.036463   3 C  s         
    12     -0.031650   1 C  px              189     -0.031668   5 C  s         
   143      0.031128   4 C  s               188     -0.030538   5 C  s         
 
 Vector    6  Occ=1.000000D+00  E=-1.018446D+01
              MO Center=  8.4D-02, -1.3D+00,  3.9D-08, r^2= 3.5D-02
   Bfn.  Coefficient  Atom+Function         Bfn.  Coefficient  Atom+Function  
  ----- ------------  ---------------      ----- ------------  ---------------
   139      0.984213   4 C  s               141      0.057789   4 C  s         
    96     -0.046894   3 C  s               325      0.045933   9 H  s         
   188     -0.044861   5 C  s               143     -0.043454   4 C  s         
   185     -0.040841   5 C  s                 4      0.040394   1 C  s         
    93     -0.040084   3 C  s               151      0.035978   4 C  py        
 
 Vector    7  Occ=1.000000D+00  E=-8.724964D-01
              MO Center= -8.2D-04,  9.9D-02,  4.8D-09, r^2= 2.0D+00
   Bfn.  Coefficient  Atom+Function         Bfn.  Coefficient  Atom+Function  
  ----- ------------  ---------------      ----- ------------  ---------------
     2      0.213921   1 C  s               232      0.203566   6 C  s         
    48      0.201923   2 C  s               186      0.196252   5 C  s         
    94      0.194814   3 C  s               140      0.188310   4 C  s         
   234      0.090514   6 C  s                50      0.089864   2 C  s         
    96      0.088178   3 C  s               188      0.088035   5 C  s         
 
 Vector    8  Occ=1.000000D+00  E=-7.627796D-01
              MO Center= -1.2D-02,  1.0D-01,  1.8D-09, r^2= 2.8D+00
   Bfn.  Coefficient  Atom+Function         Bfn.  Coefficient  Atom+Function  
  ----- ------------  ---------------      ----- ------------  ---------------
    48      0.250514   2 C  s               232     -0.251591   6 C  s         
    94      0.245141   3 C  s               186     -0.242114   5 C  s         
    50      0.146054   2 C  s               234     -0.146474   6 C  s         
   371      0.130118  11 H  s               279     -0.128673   7 H  s         
   150     -0.115425   4 C  px               97      0.110787   3 C  s         
 
 Vector    9  Occ=1.000000D+00  E=-7.537673D-01
              MO Center=  1.3D-02, -1.5D-01, -2.7D-08, r^2= 2.6D+00
   Bfn.  Coefficient  Atom+Function         Bfn.  Coefficient  Atom+Function  
  ----- ------------  ---------------      ----- ------------  ---------------
   140     -0.301129   4 C  s                 2      0.278284   1 C  s         
   186     -0.150871   5 C  s                48      0.149587   2 C  s         
   142     -0.147393   4 C  s                94     -0.146559   3 C  s         
   232      0.146741   6 C  s                96     -0.106179   3 C  s         
   188     -0.103493   5 C  s                 4      0.102914   1 C  s         
 
 Vector   10  Occ=1.000000D+00  E=-6.187697D-01
              MO Center= -2.7D-03,  3.8D-02, -1.0D-08, r^2= 3.6D+00
   Bfn.  Coefficient  Atom+Function         Bfn.  Coefficient  Atom+Function  
  ----- ------------  ---------------      ----- ------------  ---------------
   186      0.209425   5 C  s                94     -0.207926   3 C  s         
    48      0.200198   2 C  s               232     -0.198508   6 C  s         
    50      0.184491   2 C  s               234     -0.182227   6 C  s         
    96     -0.146982   3 C  s               188      0.146988   5 C  s         
     6     -0.127199   1 C  px              144      0.116965   4 C  px        
 
 Vector   11  Occ=1.000000D+00  E=-6.035694D-01
              MO Center=  3.2D-03, -8.6D-02, -3.1D-08, r^2= 3.5D+00
   Bfn.  Coefficient  Atom+Function         Bfn.  Coefficient  Atom+Function  
  ----- ------------  ---------------      ----- ------------  ---------------
   142      0.258347   4 C  s                 2      0.239056   1 C  s         
   140      0.218583   4 C  s                 4      0.198633   1 C  s         
    94     -0.139802   3 C  s               186     -0.137059   5 C  s         
    50     -0.122435   2 C  s               234     -0.122997   6 C  s         
    96     -0.121927   3 C  s               188     -0.116599   5 C  s         
 
 Vector   12  Occ=1.000000D+00  E=-5.277695D-01
              MO Center=  1.4D-02, -1.5D-01, -1.1D-08, r^2= 4.1D+00
   Bfn.  Coefficient  Atom+Function         Bfn.  Coefficient  Atom+Function  
  ----- ------------  ---------------      ----- ------------  ---------------
   148      0.159327   4 C  py              145      0.138877   4 C  py        
   324     -0.126824   9 H  s                55      0.105112   2 C  px        
   240     -0.105181   6 C  py              323     -0.100392   9 H  s         
   237     -0.096394   6 C  py              193     -0.094806   5 C  px        
   278     -0.094314   7 H  s               370     -0.094635  11 H  s         
 
 Vector   13  Occ=1.000000D+00  E=-4.645969D-01
              MO Center=  4.0D-02,  1.0D-01,  3.7D-09, r^2= 2.8D+00
   Bfn.  Coefficient  Atom+Function         Bfn.  Coefficient  Atom+Function  
  ----- ------------  ---------------      ----- ------------  ---------------
     9      0.187081   1 C  px                6      0.173658   1 C  px        
   147      0.171079   4 C  px              144      0.157805   4 C  px        
   239     -0.148611   6 C  px              194     -0.143153   5 C  py        
   101     -0.134789   3 C  px              236     -0.133280   6 C  px        
    56     -0.130221   2 C  py              191     -0.128617   5 C  py        
 
 Vector   14  Occ=1.000000D+00  E=-4.631436D-01
              MO Center= -3.7D-02, -1.6D-01, -4.7D-08, r^2= 4.7D+00
   Bfn.  Coefficient  Atom+Function         Bfn.  Coefficient  Atom+Function  
  ----- ------------  ---------------      ----- ------------  ---------------
     2      0.174808   1 C  s               193      0.141236   5 C  px        
   347      0.138656  10 H  s               301      0.132124   8 H  s         
   190      0.130189   5 C  px              140     -0.128159   4 C  s         
   196      0.124348   5 C  px               96      0.121009   3 C  s         
    55      0.114130   2 C  px              278     -0.114227   7 H  s         
 
 Vector   15  Occ=1.000000D+00  E=-4.400132D-01
              MO Center= -1.2D-02,  2.1D-01, -2.6D-08, r^2= 4.0D+00
   Bfn.  Coefficient  Atom+Function         Bfn.  Coefficient  Atom+Function  
  ----- ------------  ---------------      ----- ------------  ---------------
   240      0.144377   6 C  py              102      0.139134   3 C  py        
   237      0.133242   6 C  py              370      0.131861  11 H  s         
   278     -0.130970   7 H  s                99      0.130021   3 C  py        
    55      0.129019   2 C  px               56     -0.128453   2 C  py        
   194     -0.126956   5 C  py              191     -0.120073   5 C  py        
 
 Vector   16  Occ=1.000000D+00  E=-3.990857D-01
              MO Center=  3.9D-02, -7.8D-01, -9.8D-09, r^2= 3.3D+00
   Bfn.  Coefficient  Atom+Function         Bfn.  Coefficient  Atom+Function  
  ----- ------------  ---------------      ----- ------------  ---------------
   148      0.233537   4 C  py              145      0.209181   4 C  py        
   324     -0.198446   9 H  s               151      0.172838   4 C  py        
   323     -0.153991   9 H  s                10      0.138363   1 C  py        
    13      0.120844   1 C  py              240      0.113723   6 C  py        
    56      0.111208   2 C  py                7      0.107716   1 C  py        
 
 Vector   17  Occ=1.000000D+00  E=-3.837197D-01
              MO Center= -2.9D-03,  1.2D-01, -5.8D-08, r^2= 2.7D+00
   Bfn.  Coefficient  Atom+Function         Bfn.  Coefficient  Atom+Function  
  ----- ------------  ---------------      ----- ------------  ---------------
    11      0.173070   1 C  pz              241      0.157152   6 C  pz        
    57      0.156159   2 C  pz              195      0.152522   5 C  pz        
   103      0.151573   3 C  pz              149      0.146147   4 C  pz        
     8      0.136566   1 C  pz              238      0.126344   6 C  pz        
    54      0.125535   2 C  pz              192      0.121991   5 C  pz        
 
 Vector   18  Occ=1.000000D+00  E=-3.660120D-01
              MO Center=  1.2D-02, -1.4D-01, -2.8D-08, r^2= 4.1D+00
   Bfn.  Coefficient  Atom+Function         Bfn.  Coefficient  Atom+Function  
  ----- ------------  ---------------      ----- ------------  ---------------
   147     -0.169492   4 C  px              101      0.165324   3 C  px        
   193      0.164941   5 C  px              144     -0.159997   4 C  px        
     9      0.149290   1 C  px               98      0.149661   3 C  px        
   190      0.149006   5 C  px                6      0.141545   1 C  px        
   196      0.135922   5 C  px              104      0.133173   3 C  px        
 
 Vector   19  Occ=1.000000D+00  E=-2.685095D-01
              MO Center= -1.3D-03, -1.7D-02,  8.2D-08, r^2= 3.0D+00
   Bfn.  Coefficient  Atom+Function         Bfn.  Coefficient  Atom+Function  
  ----- ------------  ---------------      ----- ------------  ---------------
    11      0.244329   1 C  pz              149     -0.238879   4 C  pz        
     8      0.192205   1 C  pz              146     -0.190921   4 C  pz        
    14      0.175585   1 C  pz              152     -0.171915   4 C  pz        
   103     -0.135963   3 C  pz              241      0.125138   6 C  pz        
   195     -0.116141   5 C  pz              100     -0.108687   3 C  pz        
 
 Vector   20  Occ=1.000000D+00  E=-2.679177D-01
              MO Center= -5.4D-03,  6.4D-02,  2.8D-07, r^2= 3.1D+00
   Bfn.  Coefficient  Atom+Function         Bfn.  Coefficient  Atom+Function  
  ----- ------------  ---------------      ----- ------------  ---------------
   195     -0.212541   5 C  pz               57      0.210105   2 C  pz        
   103      0.200910   3 C  pz              241     -0.198121   6 C  pz        
   192     -0.169398   5 C  pz               54      0.168177   2 C  pz        
   100      0.160087   3 C  pz              238     -0.158632   6 C  pz        
    60      0.154814   2 C  pz              198     -0.153520   5 C  pz        
 
 Vector   21  Occ=1.000000D+00  E=-2.483400D-01
              MO Center= -8.1D-02,  1.3D+00,  8.3D-08, r^2= 2.3D+00
   Bfn.  Coefficient  Atom+Function         Bfn.  Coefficient  Atom+Function  
  ----- ------------  ---------------      ----- ------------  ---------------
    10      0.385938   1 C  py               13      0.337752   1 C  py        
     5      0.335467   1 C  s                 7      0.299358   1 C  py        
     4      0.279423   1 C  s                 2      0.138442   1 C  s         
   243     -0.136131   6 C  py               59     -0.134162   2 C  py        
   102      0.112508   3 C  py              194      0.112118   5 C  py        
 
 Vector   22  Occ=0.000000D+00  E=-2.605363D-02
              MO Center= -8.4D-03,  6.5D-02, -1.0D-06, r^2= 4.3D+00
   Bfn.  Coefficient  Atom+Function         Bfn.  Coefficient  Atom+Function  
  ----- ------------  ---------------      ----- ------------  ---------------
   109     -0.319583   3 C  pz              201      0.320924   5 C  pz        
    63      0.315399   2 C  pz              247     -0.312757   6 C  pz        
    60      0.227381   2 C  pz              244     -0.226021   6 C  pz        
   198      0.224722   5 C  pz              106     -0.223249   3 C  pz        
    57      0.219568   2 C  pz              103     -0.216591   3 C  pz        
 
 Vector   23  Occ=0.000000D+00  E=-1.861300D-02
              MO Center=  3.7D-03, -4.7D-02, -4.1D-06, r^2= 4.3D+00
   Bfn.  Coefficient  Atom+Function         Bfn.  Coefficient  Atom+Function  
  ----- ------------  ---------------      ----- ------------  ---------------
   155      0.439238   4 C  pz               17      0.373914   1 C  pz        
   152      0.273690   4 C  pz               11      0.259170   1 C  pz        
   149      0.250599   4 C  pz               14      0.240791   1 C  pz        
   109     -0.228156   3 C  pz              201     -0.224710   5 C  pz        
     8      0.200870   1 C  pz              247     -0.199777   6 C  pz        
 
 Vector   24  Occ=0.000000D+00  E=-1.011717D-02
              MO Center=  5.7D-02, -9.5D-01, -2.0D-06, r^2= 2.0D+01
   Bfn.  Coefficient  Atom+Function         Bfn.  Coefficient  Atom+Function  
  ----- ------------  ---------------      ----- ------------  ---------------
     5      1.445692   1 C  s               279     -0.975299   7 H  s         
   371     -0.977375  11 H  s               326     -0.741937   9 H  s         
   303     -0.730818   8 H  s               349     -0.729788  10 H  s         
   302     -0.649053   8 H  s               348     -0.651127  10 H  s         
   325     -0.588104   9 H  s               235      0.565535   6 C  s         
 
 Vector   25  Occ=0.000000D+00  E= 4.378568D-03
              MO Center=  1.8D-02, -2.6D-01, -8.4D-06, r^2= 2.7D+01
   Bfn.  Coefficient  Atom+Function         Bfn.  Coefficient  Atom+Function  
  ----- ------------  ---------------      ----- ------------  ---------------
    51      2.729029   2 C  s               235     -2.733395   6 C  s         
    97      2.674198   3 C  s               189     -2.671057   5 C  s         
   303      1.997448   8 H  s               349     -1.996415  10 H  s         
    15      1.866682   1 C  px              153      1.807239   4 C  px        
   280      1.536285   7 H  s               372     -1.542728  11 H  s         
 
 Vector   26  Occ=0.000000D+00  E= 8.724862D-03
              MO Center=  1.2D-04, -7.4D-02,  5.8D-05, r^2= 2.7D+01
   Bfn.  Coefficient  Atom+Function         Bfn.  Coefficient  Atom+Function  
  ----- ------------  ---------------      ----- ------------  ---------------
   143      6.244591   4 C  s                51     -4.008811   2 C  s         
   235     -4.009028   6 C  s               326      2.932590   9 H  s         
     5      2.588299   1 C  s               280     -2.388782   7 H  s         
   372     -2.387190  11 H  s               154      1.946457   4 C  py        
   246      1.932559   6 C  py               62      1.831827   2 C  py        
 
 Vector   27  Occ=0.000000D+00  E= 2.670399D-02
              MO Center= -9.7D-03,  2.4D-01, -1.9D-05, r^2= 3.1D+01
   Bfn.  Coefficient  Atom+Function         Bfn.  Coefficient  Atom+Function  
  ----- ------------  ---------------      ----- ------------  ---------------
   280      3.929900   7 H  s               372     -3.933935  11 H  s         
   235     -3.672650   6 C  s                51      3.641730   2 C  s         
   303     -3.594856   8 H  s               349      3.608369  10 H  s         
    61      2.216987   2 C  px               97     -2.203609   3 C  s         
   189      2.176859   5 C  s               199     -2.042289   5 C  px        
 
 Vector   28  Occ=0.000000D+00  E= 3.221438D-02
              MO Center=  3.1D-02, -6.2D-01, -1.1D-04, r^2= 2.9D+01
   Bfn.  Coefficient  Atom+Function         Bfn.  Coefficient  Atom+Function  
  ----- ------------  ---------------      ----- ------------  ---------------
     5      6.395562   1 C  s               326     -4.997109   9 H  s         
   303      3.734363   8 H  s               349      3.717924  10 H  s         
    97     -2.208286   3 C  s               154     -2.176308   4 C  py        
   189     -2.149560   5 C  s               199     -1.641119   5 C  px        
   245      1.624552   6 C  px               61     -1.589496   2 C  px        
 
 Vector   29  Occ=0.000000D+00  E= 4.329193D-02
              MO Center=  1.6D-02, -2.2D-01,  8.2D-06, r^2= 1.3D+01
   Bfn.  Coefficient  Atom+Function         Bfn.  Coefficient  Atom+Function  
  ----- ------------  ---------------      ----- ------------  ---------------
   155      0.598947   4 C  pz               63      0.575082   2 C  pz        
   247      0.577057   6 C  pz               17     -0.260297   1 C  pz        
    60     -0.154964   2 C  pz              244     -0.155202   6 C  pz        
   289     -0.123421   7 H  pz              381     -0.123696  11 H  pz        
   259      0.120586   6 C  d -1             77      0.109947   2 C  d  1      
 
 Vector   30  Occ=0.000000D+00  E= 5.495419D-02
              MO Center=  5.0D-03, -1.5D-01, -3.9D-05, r^2= 1.5D+01
   Bfn.  Coefficient  Atom+Function         Bfn.  Coefficient  Atom+Function  
  ----- ------------  ---------------      ----- ------------  ---------------
     5     10.701775   1 C  s               143      5.279391   4 C  s         
   235     -4.516145   6 C  s                51     -4.452416   2 C  s         
   303     -2.815753   8 H  s               349     -2.782123  10 H  s         
   326      2.057508   9 H  s                97     -2.006645   3 C  s         
   199      1.991873   5 C  px              107     -1.910326   3 C  px        
 
 Vector   31  Occ=0.000000D+00  E= 6.334887D-02
              MO Center= -4.1D-02,  6.5D-01, -1.0D-04, r^2= 2.8D+01
   Bfn.  Coefficient  Atom+Function         Bfn.  Coefficient  Atom+Function  
  ----- ------------  ---------------      ----- ------------  ---------------
     5     24.382589   1 C  s                51     -9.865463   2 C  s         
   235     -9.849048   6 C  s               143      7.628607   4 C  s         
    97     -6.550871   3 C  s               189     -6.471677   5 C  s         
   326      5.866562   9 H  s               154      4.771255   4 C  py        
   303     -4.696129   8 H  s               349     -4.669521  10 H  s         
 
 Vector   32  Occ=0.000000D+00  E= 6.574451D-02
              MO Center= -7.5D-06, -2.3D-02,  5.3D-04, r^2= 1.8D+01
   Bfn.  Coefficient  Atom+Function         Bfn.  Coefficient  Atom+Function  
  ----- ------------  ---------------      ----- ------------  ---------------
   109      0.977605   3 C  pz              201     -0.972494   5 C  pz        
   247     -0.774102   6 C  pz               63      0.769424   2 C  pz        
   169     -0.676735   4 C  d  1             31     -0.583230   1 C  d  1      
   198     -0.494249   5 C  pz               60      0.488023   2 C  pz        
   106      0.489804   3 C  pz              244     -0.489303   6 C  pz        
 
 Vector   33  Occ=0.000000D+00  E= 6.825427D-02
              MO Center= -1.1D-02,  1.9D-01, -2.7D-04, r^2= 1.8D+01
   Bfn.  Coefficient  Atom+Function         Bfn.  Coefficient  Atom+Function  
  ----- ------------  ---------------      ----- ------------  ---------------
    63      1.025825   2 C  pz              247      1.024055   6 C  pz        
   201     -0.813426   5 C  pz              109     -0.806074   3 C  pz        
   155     -0.753979   4 C  pz               14      0.629151   1 C  pz        
   152     -0.618249   4 C  pz               17      0.456703   1 C  pz        
   213     -0.457180   5 C  d -1            261     -0.411626   6 C  d  1      
 
 Vector   34  Occ=0.000000D+00  E= 7.645295D-02
              MO Center= -8.7D-03, -1.6D-01, -1.2D-04, r^2= 3.4D+01
   Bfn.  Coefficient  Atom+Function         Bfn.  Coefficient  Atom+Function  
  ----- ------------  ---------------      ----- ------------  ---------------
    51     13.849461   2 C  s               235    -13.884912   6 C  s         
    97     12.406752   3 C  s               189    -12.413838   5 C  s         
    15      7.678261   1 C  px              153      7.708637   4 C  px        
   107      4.768634   3 C  px              303      4.695866   8 H  s         
   349     -4.685111  10 H  s               199      4.456105   5 C  px        
 
 Vector   35  Occ=0.000000D+00  E= 7.791150D-02
              MO Center=  2.1D-01, -3.3D+00,  1.3D-04, r^2= 2.1D+01
   Bfn.  Coefficient  Atom+Function         Bfn.  Coefficient  Atom+Function  
  ----- ------------  ---------------      ----- ------------  ---------------
   143     18.274680   4 C  s                51    -13.463854   2 C  s         
   235    -13.423510   6 C  s               326      7.029142   9 H  s         
    62      5.666182   2 C  py              246      5.666380   6 C  py        
   200      5.359833   5 C  py              154      5.272542   4 C  py        
   108      5.067911   3 C  py              279      4.214711   7 H  s         
 
 Vector   36  Occ=0.000000D+00  E= 8.154825D-02
              MO Center= -7.9D-02,  1.4D+00,  7.5D-05, r^2= 2.8D+01
   Bfn.  Coefficient  Atom+Function         Bfn.  Coefficient  Atom+Function  
  ----- ------------  ---------------      ----- ------------  ---------------
   143     20.701529   4 C  s                51     -8.935568   2 C  s         
   235     -8.941301   6 C  s               246      5.240857   6 C  py        
    62      5.185797   2 C  py              325     -4.964269   9 H  s         
   280     -4.559745   7 H  s               372     -4.568511  11 H  s         
   326      4.496747   9 H  s               200      4.446709   5 C  py        
 
 Vector   37  Occ=0.000000D+00  E= 8.316823D-02
              MO Center=  5.3D-02, -7.3D-01, -1.2D-05, r^2= 2.2D+01
   Bfn.  Coefficient  Atom+Function         Bfn.  Coefficient  Atom+Function  
  ----- ------------  ---------------      ----- ------------  ---------------
   189     -4.962864   5 C  s                97      4.928331   3 C  s         
   235      3.192685   6 C  s                51     -3.070949   2 C  s         
   303      2.806320   8 H  s               349     -2.805818  10 H  s         
   108      2.772530   3 C  py              200     -2.710033   5 C  py        
   153      2.606669   4 C  px              188     -2.093429   5 C  s         
 
 Vector   38  Occ=0.000000D+00  E= 9.540194D-02
              MO Center= -5.1D-02,  8.8D-01,  1.2D-05, r^2= 3.1D+01
   Bfn.  Coefficient  Atom+Function         Bfn.  Coefficient  Atom+Function  
  ----- ------------  ---------------      ----- ------------  ---------------
    51     17.642350   2 C  s               235    -17.709706   6 C  s         
   280      7.216062   7 H  s               372     -7.216942  11 H  s         
    97     -6.942045   3 C  s               189      6.871236   5 C  s         
   108     -6.437159   3 C  py              303     -6.191484   8 H  s         
   349      6.210975  10 H  s               200      5.938566   5 C  py        
 
 Vector   39  Occ=0.000000D+00  E= 1.017975D-01
              MO Center= -4.3D-03,  1.1D-01, -3.3D-04, r^2= 1.9D+01
   Bfn.  Coefficient  Atom+Function         Bfn.  Coefficient  Atom+Function  
  ----- ------------  ---------------      ----- ------------  ---------------
    51     13.795857   2 C  s               235    -13.684472   6 C  s         
    97     10.892098   3 C  s               189    -10.874302   5 C  s         
    15      9.999504   1 C  px              153      9.716988   4 C  px        
   246     -6.125825   6 C  py              108     -6.040251   3 C  py        
   200      5.977533   5 C  py               62      5.880980   2 C  py        
 
 Vector   40  Occ=0.000000D+00  E= 1.064718D-01
              MO Center= -7.5D-03,  1.3D-01, -5.6D-04, r^2= 2.1D+01
   Bfn.  Coefficient  Atom+Function         Bfn.  Coefficient  Atom+Function  
  ----- ------------  ---------------      ----- ------------  ---------------
   143     18.280463   4 C  s                51     -9.961066   2 C  s         
   235     -9.917978   6 C  s                 5     -9.462653   1 C  s         
   107     -8.763696   3 C  px              199      7.977089   5 C  px        
   245     -7.038947   6 C  px              200      6.685389   5 C  py        
    61      6.490843   2 C  px              108      5.717623   3 C  py        
 
 Vector   41  Occ=0.000000D+00  E= 1.081992D-01
              MO Center=  2.1D-03,  1.6D-01, -9.8D-05, r^2= 2.2D+01
   Bfn.  Coefficient  Atom+Function         Bfn.  Coefficient  Atom+Function  
  ----- ------------  ---------------      ----- ------------  ---------------
   201      3.423316   5 C  pz               63      3.384823   2 C  pz        
   247     -3.396732   6 C  pz              109     -3.303767   3 C  pz        
   244     -0.700718   6 C  pz               60      0.692005   2 C  pz        
   198      0.652167   5 C  pz              106     -0.622181   3 C  pz        
    77     -0.380661   2 C  d  1            215      0.371178   5 C  d  1      
 
 Vector   42  Occ=0.000000D+00  E= 1.089652D-01
              MO Center=  2.2D-02, -4.7D-01,  2.2D-03, r^2= 2.1D+01
   Bfn.  Coefficient  Atom+Function         Bfn.  Coefficient  Atom+Function  
  ----- ------------  ---------------      ----- ------------  ---------------
   155      5.322040   4 C  pz              109     -3.489320   3 C  pz        
   201     -3.399926   5 C  pz               17      2.509019   1 C  pz        
   152      0.982819   4 C  pz              106     -0.610842   3 C  pz        
   198     -0.596379   5 C  pz              167      0.569206   4 C  d -1      
   247     -0.521863   6 C  pz               14      0.504990   1 C  pz        
 
 Vector   43  Occ=0.000000D+00  E= 1.094938D-01
              MO Center=  1.4D-02, -4.5D-01, -1.2D-03, r^2= 2.7D+01
   Bfn.  Coefficient  Atom+Function         Bfn.  Coefficient  Atom+Function  
  ----- ------------  ---------------      ----- ------------  ---------------
   326      7.669711   9 H  s               154      7.054549   4 C  py        
   303     -6.498928   8 H  s               349     -6.456167  10 H  s         
   143     -5.600069   4 C  s               108     -4.406425   3 C  py        
    62     -4.189570   2 C  py              200     -4.208400   5 C  py        
   246     -4.096842   6 C  py                4      3.925062   1 C  s         
 
 Vector   44  Occ=0.000000D+00  E= 1.177952D-01
              MO Center= -4.6D-02,  6.5D-01, -4.2D-04, r^2= 1.4D+01
   Bfn.  Coefficient  Atom+Function         Bfn.  Coefficient  Atom+Function  
  ----- ------------  ---------------      ----- ------------  ---------------
    17      6.877116   1 C  pz               63     -6.020749   2 C  pz        
   247     -6.019968   6 C  pz              109      5.051265   3 C  pz        
   201      5.047523   5 C  pz              155     -4.819586   4 C  pz        
    14      1.235255   1 C  pz               60     -1.019349   2 C  pz        
   244     -1.020405   6 C  pz              106      0.891529   3 C  pz        
 
 Vector   45  Occ=0.000000D+00  E= 1.264036D-01
              MO Center= -1.6D-02,  2.9D-01, -2.1D-05, r^2= 2.5D+01
   Bfn.  Coefficient  Atom+Function         Bfn.  Coefficient  Atom+Function  
  ----- ------------  ---------------      ----- ------------  ---------------
   235     -7.644576   6 C  s                51      7.534085   2 C  s         
   107      7.195295   3 C  px              199      7.130704   5 C  px        
   245     -7.027907   6 C  px               61     -6.929104   2 C  px        
    15      6.441883   1 C  px               97     -6.238020   3 C  s         
   189      6.146931   5 C  s               153     -5.816527   4 C  px        
 
 Vector   46  Occ=0.000000D+00  E= 1.274469D-01
              MO Center= -1.0D-02,  1.9D-01,  1.3D-04, r^2= 2.6D+01
   Bfn.  Coefficient  Atom+Function         Bfn.  Coefficient  Atom+Function  
  ----- ------------  ---------------      ----- ------------  ---------------
   154     -8.029465   4 C  py               16      7.422185   1 C  py        
   108      6.882031   3 C  py               62     -6.559073   2 C  py        
   200      6.574285   5 C  py              246     -6.393540   6 C  py        
   326     -4.050167   9 H  s                 5      3.558992   1 C  s         
   303      3.164016   8 H  s               349      3.165073  10 H  s         
 
 Vector   47  Occ=0.000000D+00  E= 1.609429D-01
              MO Center= -4.4D-03,  1.4D-01,  9.6D-05, r^2= 1.7D+01
   Bfn.  Coefficient  Atom+Function         Bfn.  Coefficient  Atom+Function  
  ----- ------------  ---------------      ----- ------------  ---------------
    17      8.196709   1 C  pz               63     -7.991917   2 C  pz        
   247     -8.022441   6 C  pz              155     -7.858178   4 C  pz        
   109      7.758854   3 C  pz              201      7.786993   5 C  pz        
   198      1.196414   5 C  pz              244     -1.196698   6 C  pz        
    60     -1.188840   2 C  pz              106      1.188821   3 C  pz        
 
 Vector   48  Occ=0.000000D+00  E= 1.660233D-01
              MO Center= -9.4D-02,  1.4D+00,  3.1D-04, r^2= 2.2D+01
   Bfn.  Coefficient  Atom+Function         Bfn.  Coefficient  Atom+Function  
  ----- ------------  ---------------      ----- ------------  ---------------
     5     59.202189   1 C  s               235    -26.053631   6 C  s         
    51    -25.912636   2 C  s               143     25.972744   4 C  s         
    97    -14.618115   3 C  s               189    -14.206130   5 C  s         
   154      7.423993   4 C  py              245      6.824604   6 C  px        
    61     -6.384859   2 C  px              326      6.155103   9 H  s         
 
 Vector   49  Occ=0.000000D+00  E= 1.754197D-01
              MO Center=  2.4D-02, -3.9D-01, -1.7D-04, r^2= 1.1D+01
   Bfn.  Coefficient  Atom+Function         Bfn.  Coefficient  Atom+Function  
  ----- ------------  ---------------      ----- ------------  ---------------
   335      1.104679   9 H  pz              312      1.079176   8 H  pz        
   358      1.079598  10 H  pz              289      0.972849   7 H  pz        
   381      0.972707  11 H  pz               17      0.953230   1 C  pz        
    63     -0.877449   2 C  pz              247     -0.880261   6 C  pz        
   198     -0.847444   5 C  pz              106     -0.840509   3 C  pz        
 
 Vector   50  Occ=0.000000D+00  E= 1.864113D-01
              MO Center=  4.6D-02, -5.5D-01,  9.8D-05, r^2= 1.5D+01
   Bfn.  Coefficient  Atom+Function         Bfn.  Coefficient  Atom+Function  
  ----- ------------  ---------------      ----- ------------  ---------------
     5     15.537160   1 C  s                97     -7.361133   3 C  s         
   189     -7.193864   5 C  s                51     -4.676535   2 C  s         
   325      4.420054   9 H  s               235     -4.321867   6 C  s         
    62     -4.050144   2 C  py              154      3.987998   4 C  py        
   246     -3.816632   6 C  py              302      3.319866   8 H  s         
 
 Vector   51  Occ=0.000000D+00  E= 1.980348D-01
              MO Center= -1.1D-01,  4.6D-01,  3.4D-04, r^2= 2.3D+01
   Bfn.  Coefficient  Atom+Function         Bfn.  Coefficient  Atom+Function  
  ----- ------------  ---------------      ----- ------------  ---------------
    51     46.340824   2 C  s               235    -42.729451   6 C  s         
   189    -25.722342   5 C  s                97     24.626436   3 C  s         
    15     18.443146   1 C  px              153     17.078582   4 C  px        
   348     14.182755  10 H  s               302    -13.791834   8 H  s         
   108     -9.148746   3 C  py              279     -8.651039   7 H  s         
 
 Vector   52  Occ=0.000000D+00  E= 1.984361D-01
              MO Center=  1.2D-01, -7.3D-01, -5.0D-04, r^2= 2.3D+01
   Bfn.  Coefficient  Atom+Function         Bfn.  Coefficient  Atom+Function  
  ----- ------------  ---------------      ----- ------------  ---------------
   143     61.245978   4 C  s               235    -36.899199   6 C  s         
    51    -32.081750   2 C  s               325    -16.836582   9 H  s         
    62     14.972247   2 C  py              200     14.143672   5 C  py        
   246     14.212678   6 C  py              108     12.181331   3 C  py        
     5    -11.565284   1 C  s               371     11.512040  11 H  s         
 
 Vector   53  Occ=0.000000D+00  E= 2.154053D-01
              MO Center=  5.3D-02, -1.4D+00, -3.4D-05, r^2= 1.5D+01
   Bfn.  Coefficient  Atom+Function         Bfn.  Coefficient  Atom+Function  
  ----- ------------  ---------------      ----- ------------  ---------------
    97     14.060923   3 C  s               189    -13.603426   5 C  s         
    96      6.609610   3 C  s               188     -6.440400   5 C  s         
   153      6.326454   4 C  px              279     -5.401307   7 H  s         
   371      4.856719  11 H  s               246     -4.778490   6 C  py        
   349     -4.792877  10 H  s               303      4.634892   8 H  s         
 
 Vector   54  Occ=0.000000D+00  E= 2.182601D-01
              MO Center=  5.9D-02, -2.9D-01, -2.1D-04, r^2= 1.5D+01
   Bfn.  Coefficient  Atom+Function         Bfn.  Coefficient  Atom+Function  
  ----- ------------  ---------------      ----- ------------  ---------------
   143     25.582792   4 C  s                51    -19.148701   2 C  s         
   235    -16.169550   6 C  s                 5     15.897615   1 C  s         
    16     -6.431294   1 C  py              325     -6.001122   9 H  s         
    62      4.754379   2 C  py              246      4.731459   6 C  py        
   189     -3.984357   5 C  s               371      3.957241  11 H  s         
 
 Vector   55  Occ=0.000000D+00  E= 2.191062D-01
              MO Center= -1.8D-02, -8.1D-02,  1.1D-03, r^2= 1.5D+01
   Bfn.  Coefficient  Atom+Function         Bfn.  Coefficient  Atom+Function  
  ----- ------------  ---------------      ----- ------------  ---------------
   235     21.251915   6 C  s                51    -18.233081   2 C  s         
   200     -8.385772   5 C  py              108      8.160234   3 C  py        
    15     -7.547490   1 C  px              302      6.906263   8 H  s         
   348     -6.922755  10 H  s               153     -6.293432   4 C  px        
    62     -4.301617   2 C  py              246      3.637907   6 C  py        
 
 Vector   56  Occ=0.000000D+00  E= 2.301227D-01
              MO Center= -8.5D-03,  2.9D-01,  1.9D-03, r^2= 1.8D+01
   Bfn.  Coefficient  Atom+Function         Bfn.  Coefficient  Atom+Function  
  ----- ------------  ---------------      ----- ------------  ---------------
   199      4.838094   5 C  px              107      4.738034   3 C  px        
   153     -3.566048   4 C  px               50     -3.308662   2 C  s         
   234      3.230690   6 C  s               303      3.175499   8 H  s         
   349     -3.146822  10 H  s                15     -2.634538   1 C  px        
   108      2.338393   3 C  py               59      1.985029   2 C  py        
 
 Vector   57  Occ=0.000000D+00  E= 2.311938D-01
              MO Center=  5.6D-06,  2.1D-03, -3.8D-03, r^2= 1.6D+01
   Bfn.  Coefficient  Atom+Function         Bfn.  Coefficient  Atom+Function  
  ----- ------------  ---------------      ----- ------------  ---------------
   106      2.138528   3 C  pz              198     -2.145426   5 C  pz        
    60      2.043437   2 C  pz              244     -2.052229   6 C  pz        
   312     -1.819607   8 H  pz              358      1.816423  10 H  pz        
   289     -1.718204   7 H  pz              381      1.723166  11 H  pz        
   169     -1.379020   4 C  d  1             31     -1.247541   1 C  d  1      
 
 Vector   58  Occ=0.000000D+00  E= 2.354125D-01
              MO Center= -2.2D-02,  2.1D-01,  4.2D-04, r^2= 1.6D+01
   Bfn.  Coefficient  Atom+Function         Bfn.  Coefficient  Atom+Function  
  ----- ------------  ---------------      ----- ------------  ---------------
   143     14.929890   4 C  s                51    -11.629081   2 C  s         
   235     -9.307881   6 C  s               107     -8.143655   3 C  px        
   199      7.833685   5 C  px               61      5.409969   2 C  px        
   245     -5.290723   6 C  px              349     -4.580171  10 H  s         
   303     -4.252846   8 H  s                 5      4.063682   1 C  s         
 
 Vector   59  Occ=0.000000D+00  E= 2.365052D-01
              MO Center=  9.2D-03,  7.4D-02,  1.1D-03, r^2= 1.7D+01
   Bfn.  Coefficient  Atom+Function         Bfn.  Coefficient  Atom+Function  
  ----- ------------  ---------------      ----- ------------  ---------------
    97    -33.205608   3 C  s               189     33.093778   5 C  s         
   235    -31.666186   6 C  s                51     31.338776   2 C  s         
   188     14.569422   5 C  s                96    -14.174748   3 C  s         
   279     10.874550   7 H  s               302    -10.690709   8 H  s         
   371    -10.703714  11 H  s               348     10.596785  10 H  s         
 
 Vector   60  Occ=0.000000D+00  E= 2.434358D-01
              MO Center=  1.9D-03, -4.4D-02, -4.6D-04, r^2= 1.5D+01
   Bfn.  Coefficient  Atom+Function         Bfn.  Coefficient  Atom+Function  
  ----- ------------  ---------------      ----- ------------  ---------------
   152      3.414954   4 C  pz               14     -3.023831   1 C  pz        
   289      2.171236   7 H  pz              381      2.170174  11 H  pz        
   335     -2.124832   9 H  pz              261      2.006193   6 C  d  1      
    77     -1.981743   2 C  d  1             63     -1.598988   2 C  pz        
   247     -1.599061   6 C  pz              155      1.372222   4 C  pz        
 
 Vector   61  Occ=0.000000D+00  E= 2.594903D-01
              MO Center=  2.0D-02, -6.0D-01,  6.2D-05, r^2= 1.7D+01
   Bfn.  Coefficient  Atom+Function         Bfn.  Coefficient  Atom+Function  
  ----- ------------  ---------------      ----- ------------  ---------------
     5      8.738937   1 C  s               108     -6.631755   3 C  py        
   200     -6.080055   5 C  py              303     -5.183428   8 H  s         
   349     -5.187146  10 H  s               199      5.077408   5 C  px        
   197     -4.808198   5 C  py              105     -4.759660   3 C  py        
   143     -4.782570   4 C  s               154      4.382130   4 C  py        
 
 Vector   62  Occ=0.000000D+00  E= 2.620116D-01
              MO Center=  6.1D-02, -1.1D+00, -5.3D-05, r^2= 1.7D+01
   Bfn.  Coefficient  Atom+Function         Bfn.  Coefficient  Atom+Function  
  ----- ------------  ---------------      ----- ------------  ---------------
     5     18.943566   1 C  s               154     15.375847   4 C  py        
   235    -15.444521   6 C  s               143     15.155866   4 C  s         
    51    -13.665866   2 C  s               326      9.175030   9 H  s         
     4      6.008815   1 C  s                97     -5.135721   3 C  s         
   108     -4.962020   3 C  py              151      4.366472   4 C  py        
 
 Vector   63  Occ=0.000000D+00  E= 2.676714D-01
              MO Center= -7.9D-03,  4.3D-01,  6.6D-05, r^2= 2.0D+01
   Bfn.  Coefficient  Atom+Function         Bfn.  Coefficient  Atom+Function  
  ----- ------------  ---------------      ----- ------------  ---------------
    51     20.695480   2 C  s               235    -19.666152   6 C  s         
   189     12.018769   5 C  s                97    -11.795075   3 C  s         
    61     11.114428   2 C  px              245     10.161584   6 C  px        
   188      8.966156   5 C  s               279      8.802741   7 H  s         
   371     -8.715001  11 H  s                96     -8.530997   3 C  s         
 
 Vector   64  Occ=0.000000D+00  E= 2.747878D-01
              MO Center= -5.7D-03,  2.4D-02,  6.6D-05, r^2= 1.4D+01
   Bfn.  Coefficient  Atom+Function         Bfn.  Coefficient  Atom+Function  
  ----- ------------  ---------------      ----- ------------  ---------------
   143      8.947787   4 C  s                 5      8.697020   1 C  s         
   154      5.764582   4 C  py              371     -5.742472  11 H  s         
   279     -5.564500   7 H  s               302     -4.751008   8 H  s         
   348     -4.548096  10 H  s               325     -4.359325   9 H  s         
    16     -4.036009   1 C  py              246      3.345566   6 C  py        
 
 Vector   65  Occ=0.000000D+00  E= 2.829768D-01
              MO Center= -8.0D-04,  1.8D-01, -1.8D-05, r^2= 1.6D+01
   Bfn.  Coefficient  Atom+Function         Bfn.  Coefficient  Atom+Function  
  ----- ------------  ---------------      ----- ------------  ---------------
    12      9.526773   1 C  px               97      8.964713   3 C  s         
   189     -8.829820   5 C  s               348     -8.154335  10 H  s         
    51     -8.006230   2 C  s               235      8.028483   6 C  s         
   302      8.040492   8 H  s               199      7.642348   5 C  px        
   107      7.150310   3 C  px              150      6.194028   4 C  px        
 
 Vector   66  Occ=0.000000D+00  E= 2.954299D-01
              MO Center= -4.6D-03,  5.0D-02, -2.2D-05, r^2= 1.6D+01
   Bfn.  Coefficient  Atom+Function         Bfn.  Coefficient  Atom+Function  
  ----- ------------  ---------------      ----- ------------  ---------------
    63      3.202586   2 C  pz              109     -3.186930   3 C  pz        
   201      3.190525   5 C  pz              247     -3.199688   6 C  pz        
   381      2.278604  11 H  pz               60      2.265994   2 C  pz        
   289     -2.275889   7 H  pz              312      2.259484   8 H  pz        
   358     -2.267565  10 H  pz              244     -2.247297   6 C  pz        
 
 Vector   67  Occ=0.000000D+00  E= 2.962816D-01
              MO Center= -6.3D-02,  9.6D-01,  4.1D-04, r^2= 1.4D+01
   Bfn.  Coefficient  Atom+Function         Bfn.  Coefficient  Atom+Function  
  ----- ------------  ---------------      ----- ------------  ---------------
     4     10.428906   1 C  s                59     -5.758852   2 C  py        
   243     -5.618969   6 C  py                5      5.529340   1 C  s         
   105     -5.547496   3 C  py              197     -5.124901   5 C  py        
    16      4.274432   1 C  py              371     -4.209560  11 H  s         
   279     -4.162707   7 H  s                13      3.913251   1 C  py        
 
 Vector   68  Occ=0.000000D+00  E= 3.080454D-01
              MO Center= -3.9D-02, -2.7D-01, -4.6D-04, r^2= 1.5D+01
   Bfn.  Coefficient  Atom+Function         Bfn.  Coefficient  Atom+Function  
  ----- ------------  ---------------      ----- ------------  ---------------
   155      5.178355   4 C  pz               14      4.363731   1 C  pz        
   109     -3.746060   3 C  pz              201     -3.737068   5 C  pz        
   335     -2.709695   9 H  pz               60     -2.052442   2 C  pz        
   244     -2.046971   6 C  pz              152      1.846964   4 C  pz        
    17      1.835058   1 C  pz              312      1.732202   8 H  pz        
 
 Vector   69  Occ=0.000000D+00  E= 3.150431D-01
              MO Center=  7.3D-02, -6.9D-02,  2.3D-05, r^2= 9.1D+00
   Bfn.  Coefficient  Atom+Function         Bfn.  Coefficient  Atom+Function  
  ----- ------------  ---------------      ----- ------------  ---------------
   261      1.289977   6 C  d  1             77      1.101795   2 C  d  1      
   169     -1.088106   4 C  d  1             75     -0.979182   2 C  d -1      
   259      0.913041   6 C  d -1            289     -0.744918   7 H  pz        
   381      0.698252  11 H  pz               31      0.638986   1 C  d  1      
   244      0.378867   6 C  pz              201      0.295863   5 C  pz        
 
 Vector   70  Occ=0.000000D+00  E= 3.284583D-01
              MO Center=  3.2D-02, -6.2D-01,  8.4D-05, r^2= 1.5D+01
   Bfn.  Coefficient  Atom+Function         Bfn.  Coefficient  Atom+Function  
  ----- ------------  ---------------      ----- ------------  ---------------
   142     12.147096   4 C  s                96      8.808975   3 C  s         
   188      8.607607   5 C  s               151     -6.817951   4 C  py        
   325     -5.841965   9 H  s                 4     -5.225624   1 C  s         
   334     -5.010278   9 H  py                5      4.894043   1 C  s         
   348     -4.462315  10 H  s               302     -4.310852   8 H  s         
 
 Vector   71  Occ=0.000000D+00  E= 3.347377D-01
              MO Center= -4.7D-03,  2.5D-02,  1.8D-04, r^2= 7.7D+00
   Bfn.  Coefficient  Atom+Function         Bfn.  Coefficient  Atom+Function  
  ----- ------------  ---------------      ----- ------------  ---------------
   289      2.042838   7 H  pz              381      2.022526  11 H  pz        
   335      1.841344   9 H  pz               14     -1.758185   1 C  pz        
   155     -1.721522   4 C  pz              247     -1.570855   6 C  pz        
    63     -1.562052   2 C  pz               77     -1.511445   2 C  d  1      
   261      1.402214   6 C  d  1            198     -1.294619   5 C  pz        
 
 Vector   72  Occ=0.000000D+00  E= 3.433151D-01
              MO Center=  3.3D-02, -3.8D-01, -4.5D-03, r^2= 1.2D+01
   Bfn.  Coefficient  Atom+Function         Bfn.  Coefficient  Atom+Function  
  ----- ------------  ---------------      ----- ------------  ---------------
   169      3.293370   4 C  d  1             31      2.703163   1 C  d  1      
   312     -2.476147   8 H  pz              358      2.476302  10 H  pz        
   123      2.163277   3 C  d  1            215      2.157912   5 C  d  1      
   198      1.802744   5 C  pz              106     -1.791727   3 C  pz        
   381      1.468776  11 H  pz              289     -1.397122   7 H  pz        
 
 Vector   73  Occ=0.000000D+00  E= 3.449188D-01
              MO Center= -4.0D-02,  5.6D-01, -2.0D-03, r^2= 1.2D+01
   Bfn.  Coefficient  Atom+Function         Bfn.  Coefficient  Atom+Function  
  ----- ------------  ---------------      ----- ------------  ---------------
   143     23.703410   4 C  s               325    -13.019331   9 H  s         
   235    -12.102169   6 C  s               371     12.030298  11 H  s         
   279     11.788452   7 H  s                51    -11.419311   2 C  s         
     5     -7.695980   1 C  s               197     -6.923218   5 C  py        
   105     -6.779658   3 C  py              243     -5.938753   6 C  py        
 
 Vector   74  Occ=0.000000D+00  E= 3.478193D-01
              MO Center= -1.4D-02, -1.5D-01,  4.1D-03, r^2= 1.2D+01
   Bfn.  Coefficient  Atom+Function         Bfn.  Coefficient  Atom+Function  
  ----- ------------  ---------------      ----- ------------  ---------------
   235    -21.494043   6 C  s                51     20.830422   2 C  s         
   348     12.055694  10 H  s               302    -11.895880   8 H  s         
   189    -11.082592   5 C  s                97     10.803080   3 C  s         
   279    -10.244724   7 H  s               371      9.259045  11 H  s         
    12     -8.096079   1 C  px              150     -7.007601   4 C  px        
 
 Vector   75  Occ=0.000000D+00  E= 3.481504D-01
              MO Center=  5.3D-02, -5.3D-01,  3.1D-03, r^2= 1.3D+01
   Bfn.  Coefficient  Atom+Function         Bfn.  Coefficient  Atom+Function  
  ----- ------------  ---------------      ----- ------------  ---------------
   155     -3.940621   4 C  pz               17      3.749116   1 C  pz        
   109      3.531854   3 C  pz              201      3.531729   5 C  pz        
    63     -3.416754   2 C  pz              247     -3.422933   6 C  pz        
   152     -3.004815   4 C  pz              213     -2.372161   5 C  d -1      
   259     -2.274563   6 C  d -1            381      2.272042  11 H  pz        
 
 Vector   76  Occ=0.000000D+00  E= 3.527372D-01
              MO Center=  1.1D-02, -5.2D-01, -2.0D-04, r^2= 1.4D+01
   Bfn.  Coefficient  Atom+Function         Bfn.  Coefficient  Atom+Function  
  ----- ------------  ---------------      ----- ------------  ---------------
    17      6.408645   1 C  pz              247     -5.892299   6 C  pz        
    63     -5.856547   2 C  pz              201      5.158431   5 C  pz        
   109      5.126263   3 C  pz              155     -4.870719   4 C  pz        
   335      3.946671   9 H  pz               14      3.807432   1 C  pz        
   167      3.066480   4 C  d -1            244     -2.707979   6 C  pz        
 
 Vector   77  Occ=0.000000D+00  E= 3.546361D-01
              MO Center= -3.2D-02,  3.2D-01, -6.7D-04, r^2= 1.5D+01
   Bfn.  Coefficient  Atom+Function         Bfn.  Coefficient  Atom+Function  
  ----- ------------  ---------------      ----- ------------  ---------------
     5     31.331464   1 C  s                51    -16.522708   2 C  s         
   143     15.913765   4 C  s               235    -14.974456   6 C  s         
   151    -11.058067   4 C  py               50      7.390902   2 C  s         
   196     -7.423280   5 C  px              234      7.362321   6 C  s         
    13      7.298514   1 C  py              104      7.307424   3 C  px        
 
 Vector   78  Occ=0.000000D+00  E= 3.598959D-01
              MO Center= -6.3D-02,  7.5D-01,  2.3D-04, r^2= 1.3D+01
   Bfn.  Coefficient  Atom+Function         Bfn.  Coefficient  Atom+Function  
  ----- ------------  ---------------      ----- ------------  ---------------
   289      3.416012   7 H  pz              381     -3.394468  11 H  pz        
    60      3.183286   2 C  pz              244     -3.127717   6 C  pz        
    77     -3.096414   2 C  d  1            121     -3.102953   3 C  d -1      
   259      3.009218   6 C  d -1            358      2.781255  10 H  pz        
   213      2.767237   5 C  d -1            106     -2.743522   3 C  pz        
 
 Vector   79  Occ=0.000000D+00  E= 3.685345D-01
              MO Center=  3.3D-02, -5.7D-01, -1.6D-04, r^2= 1.3D+01
   Bfn.  Coefficient  Atom+Function         Bfn.  Coefficient  Atom+Function  
  ----- ------------  ---------------      ----- ------------  ---------------
    96     10.771911   3 C  s               188     10.680043   5 C  s         
   196      8.560906   5 C  px              104     -8.441564   3 C  px        
   142     -7.529646   4 C  s                 5      7.179180   1 C  s         
   212      5.402678   5 C  d -2            258      5.355752   6 C  d -2      
   120     -5.226658   3 C  d -2            242     -5.069055   6 C  px        
 
 Vector   80  Occ=0.000000D+00  E= 3.720789D-01
              MO Center=  5.3D-03, -3.1D-01, -2.1D-04, r^2= 1.3D+01
   Bfn.  Coefficient  Atom+Function         Bfn.  Coefficient  Atom+Function  
  ----- ------------  ---------------      ----- ------------  ---------------
    97      9.899971   3 C  s               189     -9.780440   5 C  s         
    50      8.998956   2 C  s               234     -9.039910   6 C  s         
   279     -5.599276   7 H  s               371      5.365003  11 H  s         
   357      5.259068  10 H  py              311     -5.113799   8 H  py        
   235      5.077675   6 C  s               212     -4.877460   5 C  d -2      
 
 Vector   81  Occ=0.000000D+00  E= 3.819164D-01
              MO Center=  5.3D-02, -5.7D-01, -2.5D-06, r^2= 1.6D+01
   Bfn.  Coefficient  Atom+Function         Bfn.  Coefficient  Atom+Function  
  ----- ------------  ---------------      ----- ------------  ---------------
   166      9.083881   4 C  d -2            333      7.115753   9 H  px        
   150     -6.669912   4 C  px              216     -6.583317   5 C  d  2      
   124      6.082194   3 C  d  2            371     -5.934422  11 H  s         
   279      5.804153   7 H  s               310      5.059043   8 H  px        
   356      5.047854  10 H  px               96     -4.848662   3 C  s         
 
 Vector   82  Occ=0.000000D+00  E= 3.932532D-01
              MO Center=  8.7D-03,  4.6D-01,  1.8D-04, r^2= 1.5D+01
   Bfn.  Coefficient  Atom+Function         Bfn.  Coefficient  Atom+Function  
  ----- ------------  ---------------      ----- ------------  ---------------
    12     12.180982   1 C  px               51    -11.363767   2 C  s         
   235     10.790358   6 C  s               262      8.976515   6 C  d  2      
    78     -8.870918   2 C  d  2             15     -6.837774   1 C  px        
   216      6.699847   5 C  d  2            153     -5.867072   4 C  px        
   379     -5.881240  11 H  px              124     -5.793786   3 C  d  2      
 
 Vector   83  Occ=0.000000D+00  E= 3.960424D-01
              MO Center= -5.3D-02,  8.3D-01,  2.4D-04, r^2= 1.2D+01
   Bfn.  Coefficient  Atom+Function         Bfn.  Coefficient  Atom+Function  
  ----- ------------  ---------------      ----- ------------  ---------------
   152     -7.532526   4 C  pz              198      7.366159   5 C  pz        
   106      7.312536   3 C  pz              244     -6.508574   6 C  pz        
    60     -6.452720   2 C  pz              167     -6.334373   4 C  d -1      
   215      5.127763   5 C  d  1            123     -4.707405   3 C  d  1      
    14      4.575568   1 C  pz              259      4.051873   6 C  d -1      
 
 Vector   84  Occ=0.000000D+00  E= 4.017350D-01
              MO Center= -3.7D-02,  5.2D-01, -7.2D-04, r^2= 1.5D+01
   Bfn.  Coefficient  Atom+Function         Bfn.  Coefficient  Atom+Function  
  ----- ------------  ---------------      ----- ------------  ---------------
     5     51.587428   1 C  s               235    -20.309836   6 C  s         
    51    -19.143734   2 C  s                97    -17.417468   3 C  s         
   189    -17.287124   5 C  s               143     11.599456   4 C  s         
   142    -10.289238   4 C  s                 4     -9.645403   1 C  s         
    50     -7.964660   2 C  s               234     -7.876588   6 C  s         
 
 Vector   85  Occ=0.000000D+00  E= 4.052843D-01
              MO Center= -4.1D-02,  8.7D-02, -7.4D-05, r^2= 1.3D+01
   Bfn.  Coefficient  Atom+Function         Bfn.  Coefficient  Atom+Function  
  ----- ------------  ---------------      ----- ------------  ---------------
     5     33.882198   1 C  s               143     17.753469   4 C  s         
   235    -13.799572   6 C  s                51    -12.189077   2 C  s         
    96     10.305498   3 C  s               188      9.680914   5 C  s         
    97     -7.880416   3 C  s               189     -7.154642   5 C  s         
   262      7.007878   6 C  d  2             78      6.879545   2 C  d  2      
 
 Vector   86  Occ=0.000000D+00  E= 4.130635D-01
[...]
     Occ.   19 beta  a   ---  Virt.   24 beta  a   -0.21787 X
     Occ.   20 beta  a   ---  Virt.   22 beta  a    0.14267 X
  ----------------------------------------------------------------------------
  Root  27         a              0.251961404 a.u.                6.8562 eV 
  <S2> =   1.6614
  ----------------------------------------------------------------------------
     Transition Moments    X -0.00001   Y -0.00000   Z -0.24446
     Transition Moments   XX -0.00004  XY  0.00006  XZ  0.02641
     Transition Moments   YY -0.00012  YZ -0.16607  ZZ -0.00003
     Dipole Oscillator Strength                    0.0100380958
     Electric Quadrupole                           0.0000000024
     Magnetic Dipole                               0.0000000310
     Total Oscillator Strength                     0.0100381292
 
     Occ.   19 alpha a   ---  Virt.   26 alpha a   -0.97813 X
     Occ.   19 alpha a   ---  Virt.   35 alpha a    0.07087 X
     Occ.   19 alpha a   ---  Virt.   36 alpha a    0.07335 X
     Occ.   20 alpha a   ---  Virt.   25 alpha a   -0.11671 X
     Occ.   20 alpha a   ---  Virt.   26 alpha a   -0.08758 X
     Occ.   20 beta  a   ---  Virt.   26 beta  a   -0.05066 X
  ----------------------------------------------------------------------------
  Root  28         a              0.252662794 a.u.                6.8753 eV 
  <S2> =   1.8940
  ----------------------------------------------------------------------------
     Transition Moments    X  0.00003   Y  0.00001   Z  0.00956
     Transition Moments   XX  0.00001  XY -0.00002  XZ  0.39191
     Transition Moments   YY  0.00007  YZ  0.02785  ZZ  0.00002
     Dipole Oscillator Strength                    0.0000153838
     Electric Quadrupole                           0.0000000133
     Magnetic Dipole                               0.0000000096
     Total Oscillator Strength                     0.0000154067
 
     Occ.   19 alpha a   ---  Virt.   25 alpha a   -0.24506 X
     Occ.   19 alpha a   ---  Virt.   26 alpha a    0.08737 X
     Occ.   20 alpha a   ---  Virt.   26 alpha a   -0.95672 X
     Occ.   20 alpha a   ---  Virt.   35 alpha a    0.06131 X
     Occ.   20 alpha a   ---  Virt.   36 alpha a    0.06524 X
     Occ.   19 beta  a   ---  Virt.   26 beta  a    0.06751 X
  ----------------------------------------------------------------------------
  Root  29         a              0.253980623 a.u.                6.9112 eV 
  <S2> =   1.6127
  ----------------------------------------------------------------------------
     Transition Moments    X  0.00006   Y -0.00002   Z -0.00142
     Transition Moments   XX -0.00003  XY  0.00004  XZ -0.49471
     Transition Moments   YY -0.00011  YZ -0.02741  ZZ -0.00003
     Dipole Oscillator Strength                    0.0000003427
     Electric Quadrupole                           0.0000000214
     Magnetic Dipole                               0.0000000110
     Total Oscillator Strength                     0.0000003751
 
     Occ.   20 alpha a   ---  Virt.   26 alpha a    0.07185 X
     Occ.   19 beta  a   ---  Virt.   26 beta  a    0.98505 X
     Occ.   19 beta  a   ---  Virt.   35 beta  a   -0.05778 X
     Occ.   19 beta  a   ---  Virt.   36 beta  a   -0.07402 X
     Occ.   20 beta  a   ---  Virt.   25 beta  a    0.09669 X
  ----------------------------------------------------------------------------
  Root  30         a              0.254726420 a.u.                6.9315 eV 
  <S2> =   0.7700
  ----------------------------------------------------------------------------
     Transition Moments    X -1.50686   Y -0.05137   Z  0.00002
     Transition Moments   XX  0.02089  XY  0.18495  XZ -0.00004
     Transition Moments   YY  0.08384  YZ  0.00003  ZZ  0.00854
     Dipole Oscillator Strength                    0.3860399890
     Electric Quadrupole                           0.0000000032
     Magnetic Dipole                               0.0000000177
     Total Oscillator Strength                     0.3860400099
 
     Occ.   19 alpha a   ---  Virt.   22 alpha a   -0.37939 X
     Occ.   19 alpha a   ---  Virt.   22 alpha a    0.05305 Y
     Occ.   20 alpha a   ---  Virt.   23 alpha a    0.42656 X
     Occ.   20 alpha a   ---  Virt.   23 alpha a   -0.05099 Y
     Occ.   20 alpha a   ---  Virt.   29 alpha a   -0.14039 X
     Occ.   21 alpha a   ---  Virt.   25 alpha a    0.07579 X
     Occ.   21 alpha a   ---  Virt.   27 alpha a   -0.38431 X
     Occ.   13 beta  a   ---  Virt.   21 beta  a    0.12760 X
     Occ.   15 beta  a   ---  Virt.   21 beta  a    0.27139 X
     Occ.   19 beta  a   ---  Virt.   24 beta  a    0.49893 X
     Occ.   19 beta  a   ---  Virt.   29 beta  a   -0.13920 X
     Occ.   20 beta  a   ---  Virt.   22 beta  a   -0.34898 X
     Occ.   20 beta  a   ---  Virt.   22 beta  a    0.05618 Y
  ----------------------------------------------------------------------------
  Root  31         a              0.255328008 a.u.                6.9478 eV 
  <S2> =   0.8002
  ----------------------------------------------------------------------------
     Transition Moments    X -0.02604   Y -0.63919   Z -0.00000
     Transition Moments   XX -0.65133  XY  0.08588  XZ  0.00002
     Transition Moments   YY -1.88493  YZ -0.00003  ZZ -0.14680
     Dipole Oscillator Strength                    0.0696595720
     Electric Quadrupole                           0.0000000715
     Magnetic Dipole                               0.0000000000
     Total Oscillator Strength                     0.0696596436
 
     Occ.   19 alpha a   ---  Virt.   23 alpha a    0.10400 X
     Occ.   20 alpha a   ---  Virt.   22 alpha a    0.11350 X
     Occ.   21 alpha a   ---  Virt.   26 alpha a    0.18430 X
     Occ.   21 alpha a   ---  Virt.   28 alpha a   -0.90935 X
     Occ.   21 alpha a   ---  Virt.   30 alpha a   -0.12815 X
     Occ.   21 alpha a   ---  Virt.   31 alpha a   -0.16281 X
     Occ.   21 alpha a   ---  Virt.   48 alpha a    0.05650 X
     Occ.   16 beta  a   ---  Virt.   21 beta  a    0.18735 X
     Occ.   19 beta  a   ---  Virt.   22 beta  a    0.10932 X
     Occ.   20 beta  a   ---  Virt.   24 beta  a    0.09600 X
  ----------------------------------------------------------------------------
  Root  32         a              0.260675967 a.u.                7.0934 eV 
  <S2> =   0.7993
  ----------------------------------------------------------------------------
     Transition Moments    X -0.00001   Y  0.00001   Z -0.09573
     Transition Moments   XX  0.00001  XY  0.00001  XZ  0.04467
     Transition Moments   YY  0.00003  YZ -0.70604  ZZ -0.00000
     Dipole Oscillator Strength                    0.0015925579
     Electric Quadrupole                           0.0000000472
     Magnetic Dipole                               0.0000000334
     Total Oscillator Strength                     0.0015926385
 
     Occ.   21 alpha a   ---  Virt.   29 alpha a    0.97946 X
     Occ.   21 alpha a   ---  Virt.   33 alpha a    0.18003 X
  ----------------------------------------------------------------------------
  Root  33         a              0.265420576 a.u.                7.2225 eV 
  <S2> =   1.7806
  ----------------------------------------------------------------------------
     Transition Moments    X  0.00001   Y  0.00001   Z  0.00056
     Transition Moments   XX -0.00006  XY  0.00002  XZ  0.54628
     Transition Moments   YY -0.00003  YZ  0.03053  ZZ -0.00004
     Dipole Oscillator Strength                    0.0000000547
     Electric Quadrupole                           0.0000000298
     Magnetic Dipole                               0.0000000005
     Total Oscillator Strength                     0.0000000851
 
     Occ.   20 beta  a   ---  Virt.   27 beta  a    0.99107 X
     Occ.   20 beta  a   ---  Virt.   38 beta  a   -0.09650 X
  ----------------------------------------------------------------------------
  Root  34         a              0.267146219 a.u.                7.2694 eV 
  <S2> =   0.8198
  ----------------------------------------------------------------------------
     Transition Moments    X  0.06106   Y -1.20029   Z  0.00000
     Transition Moments   XX  0.01147  XY -0.03547  XZ  0.00001
     Transition Moments   YY  0.69899  YZ  0.00006  ZZ  0.04439
     Dipole Oscillator Strength                    0.2572471239
     Electric Quadrupole                           0.0000000154
     Magnetic Dipole                               0.0000000000
     Total Oscillator Strength                     0.2572471393
 
     Occ.   17 alpha a   ---  Virt.   23 alpha a   -0.08501 X
     Occ.   19 alpha a   ---  Virt.   23 alpha a    0.30469 X
     Occ.   19 alpha a   ---  Virt.   29 alpha a    0.16110 X
     Occ.   20 alpha a   ---  Virt.   22 alpha a    0.22275 X
     Occ.   21 alpha a   ---  Virt.   28 alpha a    0.30046 X
     Occ.   21 alpha a   ---  Virt.   30 alpha a   -0.43229 X
     Occ.   21 alpha a   ---  Virt.   31 alpha a    0.08089 X
     Occ.   14 beta  a   ---  Virt.   21 beta  a   -0.08716 X
     Occ.   16 beta  a   ---  Virt.   21 beta  a    0.50005 X
     Occ.   19 beta  a   ---  Virt.   22 beta  a    0.22377 X
     Occ.   20 beta  a   ---  Virt.   24 beta  a    0.30737 X
     Occ.   20 beta  a   ---  Virt.   29 beta  a    0.34112 X
  ----------------------------------------------------------------------------
  Root  35         a              0.270835240 a.u.                7.3698 eV 
  <S2> =   2.7180
  ----------------------------------------------------------------------------
     Transition Moments    X  0.00000   Y  0.00001   Z  0.00922
     Transition Moments   XX -0.00000  XY  0.00000  XZ -0.01988
     Transition Moments   YY -0.00002  YZ  0.13118  ZZ  0.00000
     Dipole Oscillator Strength                    0.0000153433
     Electric Quadrupole                           0.0000000019
     Magnetic Dipole                               0.0000000000
     Total Oscillator Strength                     0.0000153451
 
     Occ.   20 alpha a   ---  Virt.   27 alpha a   -0.78184 X
     Occ.   20 alpha a   ---  Virt.   38 alpha a    0.08667 X
     Occ.   19 beta  a   ---  Virt.   27 beta  a    0.59667 X
     Occ.   19 beta  a   ---  Virt.   38 beta  a   -0.07004 X
     Occ.   20 beta  a   ---  Virt.   28 beta  a    0.05464 X
     Occ.   20 beta  a   ---  Virt.   30 beta  a    0.06190 X
  ----------------------------------------------------------------------------
  Root  36         a              0.271246067 a.u.                7.3810 eV 
  <S2> =   2.7411
  ----------------------------------------------------------------------------
     Transition Moments    X  0.04797   Y  0.00652   Z -0.00000
     Transition Moments   XX -0.00508  XY -0.02897  XZ  0.00001
     Transition Moments   YY  0.00351  YZ -0.00003  ZZ -0.00254
     Dipole Oscillator Strength                    0.0004237875
     Electric Quadrupole                           0.0000000001
     Magnetic Dipole                               0.0000000018
     Total Oscillator Strength                     0.0004237893
 
     Occ.   17 alpha a   ---  Virt.   22 alpha a    0.59832 X
     Occ.   17 alpha a   ---  Virt.   41 alpha a   -0.05240 X
     Occ.   19 alpha a   ---  Virt.   32 alpha a   -0.08368 X
     Occ.   20 alpha a   ---  Virt.   29 alpha a    0.16072 X
     Occ.   20 alpha a   ---  Virt.   44 alpha a   -0.22717 X
     Occ.   20 alpha a   ---  Virt.   47 alpha a    0.17381 X
     Occ.   17 beta  a   ---  Virt.   22 beta  a   -0.64450 X
     Occ.   17 beta  a   ---  Virt.   41 beta  a    0.05433 X
     Occ.   19 beta  a   ---  Virt.   29 beta  a   -0.10426 X
     Occ.   19 beta  a   ---  Virt.   44 beta  a    0.20074 X
     Occ.   19 beta  a   ---  Virt.   47 beta  a   -0.16676 X
     Occ.   20 beta  a   ---  Virt.   31 beta  a    0.10178 X
  ----------------------------------------------------------------------------
  Root  37         a              0.271696979 a.u.                7.3933 eV 
  <S2> =   1.0353
  ----------------------------------------------------------------------------
     Transition Moments    X -0.03030   Y  0.52836   Z -0.00000
     Transition Moments   XX -1.06390  XY -0.11700  XZ  0.00000
     Transition Moments   YY  0.75940  YZ -0.00001  ZZ -0.24138
     Dipole Oscillator Strength                    0.0507319303
     Electric Quadrupole                           0.0000000905
     Magnetic Dipole                               0.0000000000
     Total Oscillator Strength                     0.0507320208
 
     Occ.   17 alpha a   ---  Virt.   23 alpha a    0.06356 X
     Occ.   19 alpha a   ---  Virt.   23 alpha a   -0.09604 X
     Occ.   21 alpha a   ---  Virt.   30 alpha a   -0.79967 X
     Occ.   21 alpha a   ---  Virt.   31 alpha a    0.20708 X
     Occ.   21 alpha a   ---  Virt.   35 alpha a   -0.07540 X
     Occ.   21 alpha a   ---  Virt.   40 alpha a    0.05693 X
     Occ.   14 beta  a   ---  Virt.   21 beta  a    0.06448 X
     Occ.   16 beta  a   ---  Virt.   21 beta  a   -0.19548 X
     Occ.   19 beta  a   ---  Virt.   22 beta  a   -0.06192 X
     Occ.   20 beta  a   ---  Virt.   24 beta  a   -0.10085 X
     Occ.   20 beta  a   ---  Virt.   29 beta  a   -0.47380 X
  ----------------------------------------------------------------------------
  Root  38         a              0.271819999 a.u.                7.3966 eV 
  <S2> =   0.8162
  ----------------------------------------------------------------------------
     Transition Moments    X  0.00001   Y -0.00004   Z  0.02497
     Transition Moments   XX  0.00008  XY  0.00006  XZ -0.07570
     Transition Moments   YY -0.00012  YZ  0.87283  ZZ  0.00003
     Dipole Oscillator Strength                    0.0001129506
     Electric Quadrupole                           0.0000000821
     Magnetic Dipole                               0.0000000038
     Total Oscillator Strength                     0.0001130365
 
     Occ.   20 alpha a   ---  Virt.   27 alpha a   -0.59375 X
     Occ.   20 alpha a   ---  Virt.   38 alpha a    0.05099 X
     Occ.   19 beta  a   ---  Virt.   27 beta  a   -0.78605 X
     Occ.   19 beta  a   ---  Virt.   38 beta  a    0.07335 X
     Occ.   20 beta  a   ---  Virt.   28 beta  a    0.12673 X
  ----------------------------------------------------------------------------
  Root  39         a              0.272278548 a.u.                7.4091 eV 
  <S2> =   1.7239
  ----------------------------------------------------------------------------
     Transition Moments    X  0.00001   Y -0.00001   Z  0.00188
     Transition Moments   XX -0.00006  XY  0.00003  XZ  0.54595
     Transition Moments   YY -0.00002  YZ  0.07220  ZZ -0.00003
     Dipole Oscillator Strength                    0.0000006427
     Electric Quadrupole                           0.0000000326
     Magnetic Dipole                               0.0000000013
     Total Oscillator Strength                     0.0000006766
 
     Occ.   19 alpha a   ---  Virt.   27 alpha a    0.99003 X
     Occ.   19 alpha a   ---  Virt.   38 alpha a   -0.09586 X
  ----------------------------------------------------------------------------
  Root  40         a              0.272521462 a.u.                7.4157 eV 
  <S2> =   1.9638
  ----------------------------------------------------------------------------
     Transition Moments    X  0.00001   Y -0.00004   Z -0.04155
     Transition Moments   XX -0.00002  XY -0.00003  XZ  0.02580
     Transition Moments   YY -0.00006  YZ -0.44200  ZZ -0.00001
     Dipole Oscillator Strength                    0.0003136227
     Electric Quadrupole                           0.0000000211
     Magnetic Dipole                               0.0000000053
     Total Oscillator Strength                     0.0003136492
 
     Occ.   19 alpha a   ---  Virt.   28 alpha a    0.11743 X
     Occ.   20 alpha a   ---  Virt.   27 alpha a   -0.12805 X
     Occ.   17 beta  a   ---  Virt.   21 beta  a    0.05489 X
     Occ.   19 beta  a   ---  Virt.   27 beta  a   -0.06299 X
     Occ.   20 beta  a   ---  Virt.   28 beta  a   -0.96955 X
     Occ.   20 beta  a   ---  Virt.   30 beta  a   -0.05587 X
     Occ.   20 beta  a   ---  Virt.   32 beta  a   -0.07480 X
     Occ.   20 beta  a   ---  Virt.   43 beta  a   -0.08096 X
 
              Target root =      1
          Target symmetry = none
      Ground state energy =   -231.646313057396
        Excitation energy =      0.106117417636
     Excited state energy =   -231.540195639761
 
  stored tddft:energy   -231.540195639761     

 Task  times  cpu:     2882.1s     wall:     3006.7s
 
 
                                NWChem Input Module
                                -------------------
 
 
 Summary of allocated global arrays
-----------------------------------
  No active global arrays



                         GA Statistics for process    0
                         ------------------------------

       create   destroy   get      put      acc     scatter   gather  read&inc
calls: 9466     9466     1.16e+07 4.03e+06 3.98e+06 5640        0      358     
number of processes/call 1.27e+00 1.75e+00 1.95e+00 0.00e+00 0.00e+00
bytes total:             1.08e+11 1.09e+10 1.13e+11 6.26e+04 0.00e+00 2.86e+03
bytes remote:            8.17e+10 1.08e+09 1.07e+11 0.00e+00 0.00e+00 0.00e+00
Max memory consumed for GA by this process: 205086464 bytes
 
MA_summarize_allocated_blocks: starting scan ...
MA_summarize_allocated_blocks: scan completed: 0 heap blocks, 0 stack blocks
MA usage statistics:

	allocation statistics:
					      heap	     stack
					      ----	     -----
	current number of blocks	         0	         0
	maximum number of blocks	        20	        52
	current total bytes		         0	         0
	maximum total bytes		   1166000	  68276408
	maximum total K-bytes		      1166	     68277
	maximum total M-bytes		         2	        69
 
 
                                     CITATION
                                     --------
                Please cite the following reference when publishing
                           results obtained with NWChem:
 
                 M. Valiev, E.J. Bylaska, N. Govind, K. Kowalski,
              T.P. Straatsma, H.J.J. van Dam, D. Wang, J. Nieplocha,
                        E. Apra, T.L. Windus, W.A. de Jong
                 "NWChem: a comprehensive and scalable open-source
                  solution for large scale molecular simulations"
                      Comput. Phys. Commun. 181, 1477 (2010)
                           doi:10.1016/j.cpc.2010.04.018
 
                                      AUTHORS
                                      -------
          E. Apra, E. J. Bylaska, W. A. de Jong, N. Govind, K. Kowalski,
       T. P. Straatsma, M. Valiev, H. J. J. van Dam, D. Wang, T. L. Windus,
        J. Hammond, J. Autschbach, K. Bhaskaran-Nair, J. Brabec, K. Lopata,
    S. A. Fischer, S. Krishnamoorthy, M. Jacquelin, W. Ma, M. Klemm, O. Villa,
      Y. Chen, V. Anisimov, F. Aquino, S. Hirata, M. T. Hackler, V. Konjkov,
            D. Mejia-Rodriguez, T. Risthaus, M. Malagoli, A. Marenich,
   A. Otero-de-la-Roza, J. Mullin, P. Nichols, R. Peverati, J. Pittner, Y. Zhao,
        P.-D. Fan, A. Fonari, M. J. Williamson, R. J. Harrison, J. R. Rehr,
      M. Dupuis, D. Silverstein, D. M. A. Smith, J. Nieplocha, V. Tipparaju,
    M. Krishnan, B. E. Van Kuiken, A. Vazquez-Mayagoitia, L. Jensen, M. Swart,
      Q. Wu, T. Van Voorhis, A. A. Auer, M. Nooijen, L. D. Crosby, E. Brown,
      G. Cisneros, G. I. Fann, H. Fruchtl, J. Garza, K. Hirao, R. A. Kendall,
      J. A. Nichols, K. Tsemekhman, K. Wolinski, J. Anchell, D. E. Bernholdt,
      P. Borowski, T. Clark, D. Clerc, H. Dachsel, M. J. O. Deegan, K. Dyall,
    D. Elwood, E. Glendening, M. Gutowski, A. C. Hess, J. Jaffe, B. G. Johnson,
     J. Ju, R. Kobayashi, R. Kutteh, Z. Lin, R. Littlefield, X. Long, B. Meng,
      T. Nakajima, S. Niu, L. Pollack, M. Rosing, K. Glaesemann, G. Sandrone,
      M. Stave, H. Taylor, G. Thomas, J. H. van Lenthe, A. T. Wong, Z. Zhang.

 Total times  cpu:     2882.1s     wall:     3007.8s
