 argument  1 = /storage/home/j/jbb5516/normalModes/mode897.09-m.nw
 


============================== echo of input deck ==============================
echo
start

title "None"

geometry
C    -0.08747224    1.38830409    0.00013429
C    -1.26735482    0.69112092   -0.00049870
C    -1.16733630   -0.70470852    0.00015036
C     0.08291598   -1.31598916    0.00049939
C     1.24655610   -0.55261762    0.00015074
C     1.17058620    0.84472727   -0.00049881
H    -2.23189055    1.18090100    0.00283630
H    -2.06748412   -1.30603725   -0.00093177
H     0.15092404   -2.39537432   -0.00305966
H     2.21506130   -1.03620839   -0.00093357
H     2.06601969    1.45169726    0.00283654
symmetry c1
end

basis spherical
 * library "aug-cc-pvtz"
end

dft
 direct
 mult 2
 iterations 500
 xc b3lyp
end

tddft
 nroots 40
 notriplet
 algorithm 1
end
task tddft energy
================================================================================


                                         
                                         
 
 
              Northwest Computational Chemistry Package (NWChem) 6.8
              ------------------------------------------------------
 
 
                    Environmental Molecular Sciences Laboratory
                       Pacific Northwest National Laboratory
                                Richland, WA 99352
 
                              Copyright (c) 1994-2017
                       Pacific Northwest National Laboratory
                            Battelle Memorial Institute
 
             NWChem is an open-source computational chemistry package
                        distributed under the terms of the
                      Educational Community License (ECL) 2.0
             A copy of the license is included with this distribution
                              in the LICENSE.TXT file
 
                                  ACKNOWLEDGMENT
                                  --------------

            This software and its documentation were developed at the
            EMSL at Pacific Northwest National Laboratory, a multiprogram
            national laboratory, operated for the U.S. Department of Energy
            by Battelle under Contract Number DE-AC05-76RL01830. Support
            for this work was provided by the Department of Energy Office
            of Biological and Environmental Research, Office of Basic
            Energy Sciences, and the Office of Advanced Scientific Computing.


           Job information
           ---------------

    hostname        = comp-sc-0377.acib.production.int.aci.ics.psu.edu
    program         = /gpfs/group/lxj18/default/jeffprograms/nwchem-6.8.1/bin/LINUX64/nwchem
    date            = Sun Sep 20 20:31:21 2020

    compiled        = Wed_Oct_03_14:08:39_2018
    source          = /gpfs/group/lxj18/default/jeffprograms/nwchem-6.8.1
    nwchem branch   = 6.8.1
    nwchem revision = v6.8-143-gdb0d964
    ga revision     = 5.6.5
    use scalapack   = F
    input           = /storage/home/j/jbb5516/normalModes/mode897.09-m.nw
    prefix          = mode897.09-m.
    data base       = ./mode897.09-m.db
    status          = startup
    nproc           =       20
    time left       =     -1s



           Memory information
           ------------------

    heap     =   13107196 doubles =    100.0 Mbytes
    stack    =   13107201 doubles =    100.0 Mbytes
    global   =   26214400 doubles =    200.0 Mbytes (distinct from heap & stack)
    total    =   52428797 doubles =    400.0 Mbytes
    verify   = yes
    hardfail = no 


           Directory information
           ---------------------
 
  0 permanent = .
  0 scratch   = .
 
 
 
 
                                NWChem Input Module
                                -------------------
 
 
                                       None
                                       ----

 Scaling coordinates for geometry "geometry" by  1.889725989
 (inverse scale =  0.529177249)

 Turning off AUTOSYM since
 SYMMETRY directive was detected!
 

          ------
          auto-z
          ------
 
 
                             Geometry "geometry" -> ""
                             -------------------------
 
 Output coordinates in angstroms (scale by  1.889725989 to convert to a.u.)
 
  No.       Tag          Charge          X              Y              Z
 ---- ---------------- ---------- -------------- -------------- --------------
    1 C                    6.0000    -0.08747224     1.38830409     0.00012523
    2 C                    6.0000    -1.26735482     0.69112092    -0.00050776
    3 C                    6.0000    -1.16733630    -0.70470852     0.00014130
    4 C                    6.0000     0.08291598    -1.31598916     0.00049033
    5 C                    6.0000     1.24655610    -0.55261762     0.00014168
    6 C                    6.0000     1.17058620     0.84472727    -0.00050787
    7 H                    1.0000    -2.23189055     1.18090100     0.00282724
    8 H                    1.0000    -2.06748412    -1.30603725    -0.00094083
    9 H                    1.0000     0.15092404    -2.39537432    -0.00306872
   10 H                    1.0000     2.21506130    -1.03620839    -0.00094263
   11 H                    1.0000     2.06601969     1.45169726     0.00282748
 
      Atomic Mass 
      ----------- 
 
      C                 12.000000
      H                  1.007825
 

 Effective nuclear repulsion energy (a.u.)     195.0639453809

            Nuclear Dipole moment (a.u.) 
            ----------------------------
        X                 Y               Z
 ---------------- ---------------- ----------------
    -0.0000000000     0.0000000000    -0.0000000000
 


                                Z-matrix (autoz)
                                -------- 

 Units are Angstrom for bonds and degrees for angles
 
      Type          Name      I     J     K     L     M      Value
      ----------- --------  ----- ----- ----- ----- ----- ----------
    1 Stretch                  1     2                       1.37047
    2 Stretch                  1     6                       1.37047
    3 Stretch                  2     3                       1.39941
    4 Stretch                  2     7                       1.08177
    5 Stretch                  3     4                       1.39169
    6 Stretch                  3     8                       1.08253
    7 Stretch                  4     5                       1.39169
    8 Stretch                  4     9                       1.08153
    9 Stretch                  5     6                       1.39941
   10 Stretch                  5    10                       1.08253
   11 Stretch                  6    11                       1.08177
   12 Bend                     1     2     3               116.47994
   13 Bend                     1     2     7               122.50029
   14 Bend                     1     6     5               116.47995
   15 Bend                     1     6    11               122.50031
   16 Bend                     2     1     6               126.05346
   17 Bend                     2     3     4               120.15375
   18 Bend                     2     3     8               119.64565
   19 Bend                     3     2     7               121.01921
   20 Bend                     3     4     5               120.67910
   21 Bend                     3     4     9               119.66020
   22 Bend                     4     3     8               120.20055
   23 Bend                     4     5     6               120.15374
   24 Bend                     4     5    10               120.20059
   25 Bend                     5     4     9               119.66023
   26 Bend                     5     6    11               121.01918
   27 Bend                     6     5    10               119.64562
   28 Torsion                  1     2     3     4          -0.04162
   29 Torsion                  1     2     3     8        -179.96178
   30 Torsion                  1     6     5     4           0.04167
   31 Torsion                  1     6     5    10         179.96165
   32 Torsion                  2     1     6     5          -0.09490
   33 Torsion                  2     1     6    11        -179.82568
   34 Torsion                  2     3     4     5          -0.00283
   35 Torsion                  2     3     4     9        -179.75246
   36 Torsion                  3     2     1     6           0.09488
   37 Torsion                  3     4     5     6           0.00281
   38 Torsion                  3     4     5    10        -179.91673
   39 Torsion                  4     3     2     7        -179.77673
   40 Torsion                  4     5     6    11         179.77672
   41 Torsion                  5     4     3     8         179.91688
   42 Torsion                  6     1     2     7         179.82571
   43 Torsion                  6     5     4     9         179.75243
   44 Torsion                  7     2     3     8           0.30312
   45 Torsion                  8     3     4     9           0.16725
   46 Torsion                  9     4     5    10          -0.16710
   47 Torsion                 10     5     6    11          -0.30330
 
 
            XYZ format geometry
            -------------------
    11
 geometry
 C                    -0.08747224     1.38830409     0.00012523
 C                    -1.26735482     0.69112092    -0.00050776
 C                    -1.16733630    -0.70470852     0.00014130
 C                     0.08291598    -1.31598916     0.00049033
 C                     1.24655610    -0.55261762     0.00014168
 C                     1.17058620     0.84472727    -0.00050787
 H                    -2.23189055     1.18090100     0.00282724
 H                    -2.06748412    -1.30603725    -0.00094083
 H                     0.15092404    -2.39537432    -0.00306872
 H                     2.21506130    -1.03620839    -0.00094263
 H                     2.06601969     1.45169726     0.00282748
 
 ==============================================================================
                                internuclear distances
 ------------------------------------------------------------------------------
       center one      |      center two      | atomic units |  angstroms
 ------------------------------------------------------------------------------
    2 C                |   1 C                |     2.58981  |     1.37047
    3 C                |   2 C                |     2.64450  |     1.39941
    4 C                |   3 C                |     2.62991  |     1.39169
    5 C                |   4 C                |     2.62991  |     1.39169
    6 C                |   1 C                |     2.58981  |     1.37047
    6 C                |   5 C                |     2.64450  |     1.39941
    7 H                |   2 C                |     2.04425  |     1.08177
    8 H                |   3 C                |     2.04568  |     1.08253
    9 H                |   4 C                |     2.04380  |     1.08153
   10 H                |   5 C                |     2.04568  |     1.08253
   11 H                |   6 C                |     2.04425  |     1.08177
 ------------------------------------------------------------------------------
                         number of included internuclear distances:         11
 ==============================================================================



 ==============================================================================
                                 internuclear angles
 ------------------------------------------------------------------------------
        center 1       |       center 2       |       center 3       |  degrees
 ------------------------------------------------------------------------------
    2 C                |   1 C                |   6 C                |   126.05
    1 C                |   2 C                |   3 C                |   116.48
    1 C                |   2 C                |   7 H                |   122.50
    3 C                |   2 C                |   7 H                |   121.02
    2 C                |   3 C                |   4 C                |   120.15
    2 C                |   3 C                |   8 H                |   119.65
    4 C                |   3 C                |   8 H                |   120.20
    3 C                |   4 C                |   5 C                |   120.68
    3 C                |   4 C                |   9 H                |   119.66
    5 C                |   4 C                |   9 H                |   119.66
    4 C                |   5 C                |   6 C                |   120.15
    4 C                |   5 C                |  10 H                |   120.20
    6 C                |   5 C                |  10 H                |   119.65
    1 C                |   6 C                |   5 C                |   116.48
    1 C                |   6 C                |  11 H                |   122.50
    5 C                |   6 C                |  11 H                |   121.02
 ------------------------------------------------------------------------------
                            number of included internuclear angles:         16
 ==============================================================================





 Summary of "ao basis" -> "" (spherical)
 ------------------------------------------------------------------------------
       Tag                 Description            Shells   Functions and Types
 ---------------- ------------------------------  ------  ---------------------
 *                        aug-cc-pvtz                 on all atoms 


 
                                 NWChem DFT Module
                                 -----------------
 
 
                                       None
 
 
                      Basis "ao basis" -> "ao basis" (spherical)
                      -----
  C (Carbon)
  ----------
            Exponent  Coefficients 
       -------------- ---------------------------------------------------------
  1 S  8.23600000E+03  0.000531
  1 S  1.23500000E+03  0.004108
  1 S  2.80800000E+02  0.021087
  1 S  7.92700000E+01  0.081853
  1 S  2.55900000E+01  0.234817
  1 S  8.99700000E+00  0.434401
  1 S  3.31900000E+00  0.346129
  1 S  3.64300000E-01 -0.008983
 
  2 S  8.23600000E+03 -0.000113
  2 S  1.23500000E+03 -0.000878
  2 S  2.80800000E+02 -0.004540
  2 S  7.92700000E+01 -0.018133
  2 S  2.55900000E+01 -0.055760
  2 S  8.99700000E+00 -0.126895
  2 S  3.31900000E+00 -0.170352
  2 S  3.64300000E-01  0.598684
 
  3 S  9.05900000E-01  1.000000
 
  4 S  1.28500000E-01  1.000000
 
  5 S  4.40200000E-02  1.000000
 
  6 P  1.87100000E+01  0.014031
  6 P  4.13300000E+00  0.086866
  6 P  1.20000000E+00  0.290216
 
  7 P  3.82700000E-01  1.000000
 
  8 P  1.20900000E-01  1.000000
 
  9 P  3.56900000E-02  1.000000
 
 10 D  1.09700000E+00  1.000000
 
 11 D  3.18000000E-01  1.000000
 
 12 D  1.00000000E-01  1.000000
 
 13 F  7.61000000E-01  1.000000
 
 14 F  2.68000000E-01  1.000000
 
  H (Hydrogen)
  ------------
            Exponent  Coefficients 
       -------------- ---------------------------------------------------------
  1 S  3.38700000E+01  0.006068
  1 S  5.09500000E+00  0.045308
  1 S  1.15900000E+00  0.202822
 
  2 S  3.25800000E-01  1.000000
 
  3 S  1.02700000E-01  1.000000
 
  4 S  2.52600000E-02  1.000000
 
  5 P  1.40700000E+00  1.000000
 
  6 P  3.88000000E-01  1.000000
 
  7 P  1.02000000E-01  1.000000
 
  8 D  1.05700000E+00  1.000000
 
  9 D  2.47000000E-01  1.000000
 


 Summary of "ao basis" -> "ao basis" (spherical)
 ------------------------------------------------------------------------------
       Tag                 Description            Shells   Functions and Types
 ---------------- ------------------------------  ------  ---------------------
 C                        aug-cc-pvtz               14       46   5s4p3d2f
 H                        aug-cc-pvtz                9       23   4s3p2d




 Summary of "ao basis" -> "ao basis" (spherical)
 ------------------------------------------------------------------------------
       Tag                 Description            Shells   Functions and Types
 ---------------- ------------------------------  ------  ---------------------
 C                        aug-cc-pvtz               14       46   5s4p3d2f
 H                        aug-cc-pvtz                9       23   4s3p2d


  Caching 1-el integrals 
 
            General Information
            -------------------
          SCF calculation type: DFT
          Wavefunction type:  spin polarized.
          No. of atoms     :    11
          No. of electrons :    41
           Alpha electrons :    21
            Beta electrons :    20
          Charge           :     0
          Spin multiplicity:     2
          Use of symmetry is: off; symmetry adaption is: off
          Maximum number of iterations: 500
          This is a Direct SCF calculation.
          AO basis - number of functions:   391
                     number of shells:   129
          Convergence on energy requested:  1.00D-06
          Convergence on density requested:  1.00D-05
          Convergence on gradient requested:  5.00D-04
 
              XC Information
              --------------
                         B3LYP Method XC Potential
                     Hartree-Fock (Exact) Exchange  0.200          
                        Slater Exchange Functional  0.800 local    
                    Becke 1988 Exchange Functional  0.720 non-local
              Lee-Yang-Parr Correlation Functional  0.810          
                  VWN I RPA Correlation Functional  0.190 local    
 
             Grid Information
             ----------------
          Grid used for XC integration:  medium    
          Radial quadrature: Mura-Knowles        
          Angular quadrature: Lebedev. 
          Tag              B.-S. Rad. Rad. Pts. Rad. Cut. Ang. Pts.
          ---              ---------- --------- --------- ---------
          C                   0.70       49          15.0       434
          H                   0.35       45          17.0       434
          Grid pruning is: on 
          Number of quadrature shells:   519
          Spatial weights used:  Erf1
 
          Convergence Information
          -----------------------
          Convergence aids based upon iterative change in 
          total energy or number of iterations. 
          Levelshifting, if invoked, occurs when the 
          HOMO/LUMO gap drops below (HL_TOL):  1.00D-02
          DIIS, if invoked, will attempt to extrapolate 
          using up to (NFOCK): 10 stored Fock matrices.

                    Damping( 0%)  Levelshifting(0.5)       DIIS
                  --------------- ------------------- ---------------
          dE  on:    start            ASAP                start   
          dE off:    2 iters        500 iters           500 iters 

 
      Screening Tolerance Information
      -------------------------------
          Density screening/tol_rho:  1.00D-10
          AO Gaussian exp screening on grid/accAOfunc:  14
          CD Gaussian exp screening on grid/accCDfunc:  20
          XC Gaussian exp screening on grid/accXCfunc:  20
          Schwarz screening/accCoul:  1.00D-08

 
 WARNING : Found     7 linear dependencies 
 S eigenvalue threshold:     1.00000E-05
 Smallest S eigenvalue :     1.46413E-06
 Largest  S eigenvalue :     7.76744E-06
 

 !! The overlap matrix has   7 vectors deemed linearly dependent with
    eigenvalues:
 1.46D-06 2.24D-06 2.83D-06 3.54D-06 5.28D-06 5.95D-06 7.77D-06
 
 
      Superposition of Atomic Density Guess
      -------------------------------------
 
 Sum of atomic energies:        -228.52307259
 
      Non-variational initial energy
      ------------------------------

 Total energy =    -232.667199
 1-e energy   =    -691.328419
 2-e energy   =     263.597275
 HOMO         =      -0.183326
 LUMO         =      -0.022269
 
   Time after variat. SCF:     10.0
   Time prior to 1st pass:     10.0

 Grid_pts file          = ./mode897.09-m.gridpts.00
 Record size in doubles =  12289        No. of grid_pts per rec  =   3070
 Max. records in memory =      6        Max. recs in file   = 218544532

 Grid integrated density:      40.999765883760
 Requested integration accuracy:   0.10E-05

           Memory utilization after 1st SCF pass: 
           Heap Space remaining (MW):       12.96            12961276
          Stack Space remaining (MW):       13.10            13103684

   convergence    iter        energy       DeltaE   RMS-Dens  Diis-err    time
 ---------------- ----- ----------------- --------- --------- ---------  ------
 d= 0,ls=0.0,diis     1   -231.5815892292 -4.27D+02  6.18D-02  2.09D-01    21.5
                                                     6.98D-02  1.96D-01
 d= 0,ls=0.0,diis     2   -231.6398330437 -5.82D-02  6.09D-02  1.22D-02    33.3
                                                     6.87D-02  1.25D-02
 d= 0,ls=0.0,diis     3   -231.6446101905 -4.78D-03  1.28D-03  3.44D-03    45.0
                                                     1.38D-03  3.50D-03
 d= 0,ls=0.0,diis     4   -231.6457670455 -1.16D-03  2.03D-04  1.12D-03    56.8
                                                     2.07D-04  1.06D-03
 d= 0,ls=0.0,diis     5   -231.6462851845 -5.18D-04  3.40D-05  4.24D-05    68.6
                                                     3.12D-05  4.84D-05
  Resetting Diis
 d= 0,ls=0.0,diis     6   -231.6463130623 -2.79D-05  1.11D-05  7.81D-06    80.4
                                                     1.06D-05  6.31D-06
 d= 0,ls=0.0,diis     7   -231.6463192569 -6.19D-06  7.31D-06  2.13D-06    92.2
                                                     6.52D-06  2.39D-06
 d= 0,ls=0.0,diis     8   -231.6463203313 -1.07D-06  3.05D-06  5.48D-06   104.0
                                                     2.70D-06  4.83D-06
 d= 0,ls=0.0,diis     9   -231.6463236217 -3.29D-06  3.74D-06  3.84D-07   115.8
                                                     3.31D-06  3.27D-07
 d= 0,ls=0.0,diis    10   -231.6463249257 -1.30D-06  2.14D-06  1.89D-07   127.6
                                                     2.45D-06  2.88D-07
 d= 0,ls=0.0,diis    11   -231.6463253600 -4.34D-07  5.94D-07  1.19D-08   139.4
                                                     5.14D-07  9.03D-09


         Total DFT energy =     -231.646325359974
      One electron energy =     -696.560863020469
           Coulomb energy =      304.259778031357
    Exchange-Corr. energy =      -34.409185751769
 Nuclear repulsion energy =      195.063945380907

 Numeric. integr. density =       40.999984400709

     Total iterative time =    129.4s


 
                    DFT Final Alpha Molecular Orbital Analysis
                    ------------------------------------------
 
 Vector    1  Occ=1.000000D+00  E=-1.020526D+01
              MO Center= -8.7D-02,  1.4D+00,  1.2D-04, r^2= 3.0D-02
   Bfn.  Coefficient  Atom+Function         Bfn.  Coefficient  Atom+Function  
  ----- ------------  ---------------      ----- ------------  ---------------
     1      0.984164   1 C  s                 3      0.058854   1 C  s         
    50     -0.038415   2 C  s               234     -0.038415   6 C  s         
   143      0.037862   4 C  s               279      0.037944   7 H  s         
   371      0.037942  11 H  s                51     -0.030665   2 C  s         
   235     -0.030664   6 C  s                47      0.025288   2 C  s         
 
 Vector    2  Occ=1.000000D+00  E=-1.019183D+01
              MO Center= -7.3D-01, -6.3D-01,  1.2D-04, r^2= 9.6D-01
   Bfn.  Coefficient  Atom+Function         Bfn.  Coefficient  Atom+Function  
  ----- ------------  ---------------      ----- ------------  ---------------
    93      0.874115   3 C  s               185      0.412021   5 C  s         
    47      0.176793   2 C  s               142     -0.092920   4 C  s         
   231      0.072016   6 C  s               139      0.055747   4 C  s         
    95      0.052264   3 C  s               302      0.049054   8 H  s         
   325      0.048082   9 H  s               234      0.036374   6 C  s         
 
 Vector    3  Occ=1.000000D+00  E=-1.019180D+01
              MO Center=  8.1D-01, -5.2D-01,  1.1D-04, r^2= 9.8D-01
   Bfn.  Coefficient  Atom+Function         Bfn.  Coefficient  Atom+Function  
  ----- ------------  ---------------      ----- ------------  ---------------
   185      0.872107   5 C  s                93     -0.407815   3 C  s         
   231      0.190381   6 C  s                47     -0.100692   2 C  s         
    50      0.062538   2 C  s               348      0.059053  10 H  s         
    51      0.052893   2 C  s               187      0.051925   5 C  s         
   279     -0.051675   7 H  s               234     -0.051088   6 C  s         
 
 Vector    4  Occ=1.000000D+00  E=-1.019034D+01
              MO Center= -1.1D+00,  6.4D-01, -4.8D-04, r^2= 3.9D-01
   Bfn.  Coefficient  Atom+Function         Bfn.  Coefficient  Atom+Function  
  ----- ------------  ---------------      ----- ------------  ---------------
    47      0.940232   2 C  s               231      0.221531   6 C  s         
    93     -0.191980   3 C  s               279      0.058553   7 H  s         
    49      0.054934   2 C  s               143      0.037879   4 C  s         
     4     -0.035245   1 C  s               185     -0.033169   5 C  s         
   142     -0.032006   4 C  s               189      0.031684   5 C  s         
 
 Vector    5  Occ=1.000000D+00  E=-1.019033D+01
              MO Center=  1.0D+00,  7.7D-01, -4.8D-04, r^2= 4.0D-01
   Bfn.  Coefficient  Atom+Function         Bfn.  Coefficient  Atom+Function  
  ----- ------------  ---------------      ----- ------------  ---------------
   231      0.938619   6 C  s                47     -0.214666   2 C  s         
   185     -0.197623   5 C  s                93      0.056982   3 C  s         
   371      0.056249  11 H  s               233      0.054437   6 C  s         
    97      0.045931   3 C  s                96      0.041038   3 C  s         
   189     -0.039678   5 C  s                12     -0.037468   1 C  px        
 
 Vector    6  Occ=1.000000D+00  E=-1.018432D+01
              MO Center=  8.3D-02, -1.3D+00,  4.9D-04, r^2= 3.5D-02
   Bfn.  Coefficient  Atom+Function         Bfn.  Coefficient  Atom+Function  
  ----- ------------  ---------------      ----- ------------  ---------------
   139      0.984285   4 C  s               141      0.057792   4 C  s         
    96     -0.045901   3 C  s               188     -0.045902   5 C  s         
   325      0.046001   9 H  s               143     -0.043490   4 C  s         
     4      0.040387   1 C  s                93     -0.039664   3 C  s         
   185     -0.039749   5 C  s               151      0.036008   4 C  py        
 
 Vector    7  Occ=1.000000D+00  E=-8.724604D-01
              MO Center= -6.3D-03,  9.9D-02, -1.6D-05, r^2= 2.0D+00
   Bfn.  Coefficient  Atom+Function         Bfn.  Coefficient  Atom+Function  
  ----- ------------  ---------------      ----- ------------  ---------------
     2      0.214063   1 C  s                48      0.202671   2 C  s         
   232      0.202654   6 C  s                94      0.195596   3 C  s         
   186      0.195579   5 C  s               140      0.188217   4 C  s         
    50      0.090241   2 C  s               234      0.090231   6 C  s         
    96      0.088097   3 C  s               188      0.088091   5 C  s         
 
 Vector    8  Occ=1.000000D+00  E=-7.627320D-01
              MO Center= -6.3D-03,  1.0D-01,  7.8D-05, r^2= 2.8D+00
   Bfn.  Coefficient  Atom+Function         Bfn.  Coefficient  Atom+Function  
  ----- ------------  ---------------      ----- ------------  ---------------
    48      0.250858   2 C  s               232     -0.250867   6 C  s         
    94      0.243819   3 C  s               186     -0.243827   5 C  s         
    50      0.146201   2 C  s               234     -0.146209   6 C  s         
   279     -0.129366   7 H  s               371      0.129370  11 H  s         
   150     -0.115520   4 C  px               97      0.110863   3 C  s         
 
 Vector    9  Occ=1.000000D+00  E=-7.537326D-01
              MO Center=  9.2D-03, -1.5D-01, -8.7D-05, r^2= 2.6D+00
   Bfn.  Coefficient  Atom+Function         Bfn.  Coefficient  Atom+Function  
  ----- ------------  ---------------      ----- ------------  ---------------
   140     -0.300918   4 C  s                 2      0.278554   1 C  s         
    94     -0.148872   3 C  s               186     -0.148865   5 C  s         
    48      0.148026   2 C  s               142     -0.147437   4 C  s         
   232      0.148016   6 C  s                96     -0.104895   3 C  s         
   188     -0.104893   5 C  s                 4      0.103020   1 C  s         
 
 Vector   10  Occ=1.000000D+00  E=-6.187398D-01
              MO Center= -2.5D-03,  3.9D-02,  2.1D-04, r^2= 3.6D+00
   Bfn.  Coefficient  Atom+Function         Bfn.  Coefficient  Atom+Function  
  ----- ------------  ---------------      ----- ------------  ---------------
    94     -0.208566   3 C  s               186      0.208561   5 C  s         
    48      0.199458   2 C  s               232     -0.199464   6 C  s         
    50      0.183364   2 C  s               234     -0.183371   6 C  s         
    96     -0.146996   3 C  s               188      0.146985   5 C  s         
     6     -0.127295   1 C  px              144      0.116926   4 C  px        
 
 Vector   11  Occ=1.000000D+00  E=-6.035487D-01
              MO Center=  5.4D-03, -8.7D-02, -2.0D-04, r^2= 3.5D+00
   Bfn.  Coefficient  Atom+Function         Bfn.  Coefficient  Atom+Function  
  ----- ------------  ---------------      ----- ------------  ---------------
   142      0.258345   4 C  s                 2      0.238937   1 C  s         
   140      0.218767   4 C  s                 4      0.198700   1 C  s         
    94     -0.138339   3 C  s               186     -0.138358   5 C  s         
    50     -0.122714   2 C  s               234     -0.122705   6 C  s         
    96     -0.119274   3 C  s               188     -0.119286   5 C  s         
 
 Vector   12  Occ=1.000000D+00  E=-5.277262D-01
              MO Center=  9.4D-03, -1.5D-01,  4.6D-05, r^2= 4.1D+00
   Bfn.  Coefficient  Atom+Function         Bfn.  Coefficient  Atom+Function  
  ----- ------------  ---------------      ----- ------------  ---------------
   148      0.159262   4 C  py              145      0.138837   4 C  py        
   324     -0.126838   9 H  s                55      0.105299   2 C  px        
   240     -0.104900   6 C  py              323     -0.100376   9 H  s         
   237     -0.096178   6 C  py              193     -0.094441   5 C  px        
   278     -0.094490   7 H  s               370     -0.094483  11 H  s         
 
 Vector   13  Occ=1.000000D+00  E=-4.645295D-01
              MO Center= -6.7D-03,  1.0D-01,  2.4D-05, r^2= 2.7D+00
   Bfn.  Coefficient  Atom+Function         Bfn.  Coefficient  Atom+Function  
  ----- ------------  ---------------      ----- ------------  ---------------
     9      0.189041   1 C  px                6      0.175362   1 C  px        
   147      0.172357   4 C  px              144      0.159073   4 C  px        
   239     -0.136868   6 C  px              194     -0.134751   5 C  py        
    56     -0.131374   2 C  py               55     -0.121398   2 C  px        
   191     -0.121434   5 C  py              236     -0.121874   6 C  px        
 
 Vector   14  Occ=1.000000D+00  E=-4.631582D-01
              MO Center=  1.0D-02, -1.6D-01,  1.4D-04, r^2= 4.8D+00
   Bfn.  Coefficient  Atom+Function         Bfn.  Coefficient  Atom+Function  
  ----- ------------  ---------------      ----- ------------  ---------------
     2      0.176557   1 C  s               301      0.136700   8 H  s         
   347      0.136676  10 H  s               140     -0.129403   4 C  s         
   193      0.127763   5 C  px              196      0.120321   5 C  px        
   101     -0.118802   3 C  px              190      0.118564   5 C  px        
    96      0.117512   3 C  s               104     -0.117397   3 C  px        
 
 Vector   15  Occ=1.000000D+00  E=-4.399771D-01
              MO Center= -1.3D-02,  2.1D-01,  3.0D-04, r^2= 4.0D+00
   Bfn.  Coefficient  Atom+Function         Bfn.  Coefficient  Atom+Function  
  ----- ------------  ---------------      ----- ------------  ---------------
   240      0.143966   6 C  py              102      0.139209   3 C  py        
   237      0.132906   6 C  py              278     -0.131462   7 H  s         
   370      0.131460  11 H  s                99      0.130193   3 C  py        
    55      0.129421   2 C  px               56     -0.128746   2 C  py        
   194     -0.126948   5 C  py               53     -0.119657   2 C  py        
 
 Vector   16  Occ=1.000000D+00  E=-3.990543D-01
              MO Center=  4.9D-02, -7.8D-01,  1.7D-06, r^2= 3.3D+00
   Bfn.  Coefficient  Atom+Function         Bfn.  Coefficient  Atom+Function  
  ----- ------------  ---------------      ----- ------------  ---------------
   148      0.233489   4 C  py              145      0.209173   4 C  py        
   324     -0.198578   9 H  s               151      0.172704   4 C  py        
   323     -0.154019   9 H  s                10      0.138633   1 C  py        
    13      0.120966   1 C  py              240      0.115197   6 C  py        
    56      0.109424   2 C  py                7      0.107918   1 C  py        
 
 Vector   17  Occ=1.000000D+00  E=-3.836986D-01
              MO Center= -7.7D-03,  1.2D-01, -6.9D-04, r^2= 2.7D+00
   Bfn.  Coefficient  Atom+Function         Bfn.  Coefficient  Atom+Function  
  ----- ------------  ---------------      ----- ------------  ---------------
    11      0.173440   1 C  pz               57      0.156399   2 C  pz        
   241      0.156387   6 C  pz              103      0.152218   3 C  pz        
   195      0.152205   5 C  pz              149      0.145875   4 C  pz        
     8      0.136815   1 C  pz               54      0.125774   2 C  pz        
   238      0.125764   6 C  pz              100      0.121720   3 C  pz        
 
 Vector   18  Occ=1.000000D+00  E=-3.659896D-01
              MO Center=  9.1D-03, -1.4D-01,  2.4D-04, r^2= 4.1D+00
   Bfn.  Coefficient  Atom+Function         Bfn.  Coefficient  Atom+Function  
  ----- ------------  ---------------      ----- ------------  ---------------
   147     -0.169331   4 C  px              101      0.165177   3 C  px        
   193      0.165097   5 C  px              144     -0.159884   4 C  px        
     9      0.149416   1 C  px               98      0.149455   3 C  px        
   190      0.149152   5 C  px                6      0.141598   1 C  px        
   196      0.135657   5 C  px              104      0.133537   3 C  px        
 
 Vector   19  Occ=1.000000D+00  E=-2.685142D-01
              MO Center=  9.1D-04, -1.5D-02,  7.1D-04, r^2= 3.0D+00
   Bfn.  Coefficient  Atom+Function         Bfn.  Coefficient  Atom+Function  
  ----- ------------  ---------------      ----- ------------  ---------------
    11      0.245300   1 C  pz              149     -0.238555   4 C  pz        
     8      0.192908   1 C  pz              146     -0.190710   4 C  pz        
    14      0.176331   1 C  pz              152     -0.171620   4 C  pz        
   103     -0.126597   3 C  pz              195     -0.126468   5 C  pz        
    57      0.114765   2 C  pz              241      0.114883   6 C  pz        
 
 Vector   20  Occ=1.000000D+00  E=-2.678703D-01
              MO Center= -3.8D-03,  6.1D-02, -5.3D-04, r^2= 3.1D+00
   Bfn.  Coefficient  Atom+Function         Bfn.  Coefficient  Atom+Function  
  ----- ------------  ---------------      ----- ------------  ---------------
   103      0.207440   3 C  pz              195     -0.207521   5 C  pz        
    57      0.203846   2 C  pz              241     -0.203783   6 C  pz        
   100      0.165271   3 C  pz              192     -0.165336   5 C  pz        
    54      0.163240   2 C  pz              238     -0.163189   6 C  pz        
    60      0.150529   2 C  pz              106      0.149952   3 C  pz        
 
 Vector   21  Occ=1.000000D+00  E=-2.484189D-01
              MO Center= -8.2D-02,  1.3D+00,  1.1D-04, r^2= 2.3D+00
   Bfn.  Coefficient  Atom+Function         Bfn.  Coefficient  Atom+Function  
  ----- ------------  ---------------      ----- ------------  ---------------
    10      0.385994   1 C  py               13      0.337686   1 C  py        
     5      0.335233   1 C  s                 7      0.299344   1 C  py        
     4      0.279455   1 C  s                 2      0.138350   1 C  s         
   243     -0.136196   6 C  py               59     -0.134141   2 C  py        
   102      0.112396   3 C  py              194      0.112408   5 C  py        
 
 Vector   22  Occ=0.000000D+00  E=-2.600792D-02
              MO Center= -4.3D-03,  6.8D-02, -8.3D-04, r^2= 4.3D+00
   Bfn.  Coefficient  Atom+Function         Bfn.  Coefficient  Atom+Function  
  ----- ------------  ---------------      ----- ------------  ---------------
   109     -0.320093   3 C  pz              201      0.320072   5 C  pz        
    63      0.314639   2 C  pz              247     -0.314626   6 C  pz        
    60      0.226969   2 C  pz              244     -0.226961   6 C  pz        
   106     -0.223737   3 C  pz              198      0.223725   5 C  pz        
    57      0.218764   2 C  pz              241     -0.218760   6 C  pz        
 
 Vector   23  Occ=0.000000D+00  E=-1.861359D-02
              MO Center=  3.1D-03, -5.0D-02,  4.6D-04, r^2= 4.3D+00
   Bfn.  Coefficient  Atom+Function         Bfn.  Coefficient  Atom+Function  
  ----- ------------  ---------------      ----- ------------  ---------------
   155      0.439586   4 C  pz               17      0.373552   1 C  pz        
   152      0.273936   4 C  pz               11      0.258953   1 C  pz        
   149      0.250781   4 C  pz               14      0.240480   1 C  pz        
   109     -0.226069   3 C  pz              201     -0.226079   5 C  pz        
     8      0.200624   1 C  pz               63     -0.198210   2 C  pz        
 
 Vector   24  Occ=0.000000D+00  E=-1.011003D-02
              MO Center=  6.0D-02, -9.5D-01, -8.6D-04, r^2= 2.0D+01
   Bfn.  Coefficient  Atom+Function         Bfn.  Coefficient  Atom+Function  
  ----- ------------  ---------------      ----- ------------  ---------------
     5      1.446695   1 C  s               279     -0.976450   7 H  s         
   371     -0.976447  11 H  s               326     -0.741557   9 H  s         
   303     -0.730330   8 H  s               349     -0.730195  10 H  s         
   302     -0.650224   8 H  s               348     -0.650232  10 H  s         
   325     -0.588359   9 H  s                51      0.561440   2 C  s         
 
 Vector   25  Occ=0.000000D+00  E= 4.381992D-03
              MO Center=  1.6D-02, -2.6D-01,  1.6D-03, r^2= 2.7D+01
   Bfn.  Coefficient  Atom+Function         Bfn.  Coefficient  Atom+Function  
  ----- ------------  ---------------      ----- ------------  ---------------
    51      2.731984   2 C  s               235     -2.731705   6 C  s         
    97      2.672912   3 C  s               189     -2.672921   5 C  s         
   303      1.996706   8 H  s               349     -1.996822  10 H  s         
    15      1.866895   1 C  px              153      1.807501   4 C  px        
   280      1.540133   7 H  s               372     -1.540015  11 H  s         
 
 Vector   26  Occ=0.000000D+00  E= 8.728777D-03
              MO Center=  4.6D-03, -7.3D-02,  1.7D-03, r^2= 2.7D+01
   Bfn.  Coefficient  Atom+Function         Bfn.  Coefficient  Atom+Function  
  ----- ------------  ---------------      ----- ------------  ---------------
   143      6.244730   4 C  s                51     -4.009694   2 C  s         
   235     -4.009874   6 C  s               326      2.932077   9 H  s         
     5      2.589879   1 C  s               280     -2.388347   7 H  s         
   372     -2.388349  11 H  s               154      1.946981   4 C  py        
   246      1.933975   6 C  py               62      1.829814   2 C  py        
 
 Vector   27  Occ=0.000000D+00  E= 2.670486D-02
              MO Center= -1.5D-02,  2.4D-01,  2.3D-03, r^2= 3.1D+01
   Bfn.  Coefficient  Atom+Function         Bfn.  Coefficient  Atom+Function  
  ----- ------------  ---------------      ----- ------------  ---------------
   280      3.932382   7 H  s               372     -3.932459  11 H  s         
    51      3.659447   2 C  s               235     -3.659845   6 C  s         
   303     -3.601942   8 H  s               349      3.601780  10 H  s         
    61      2.222102   2 C  px               97     -2.190142   3 C  s         
   189      2.190155   5 C  s               199     -2.040919   5 C  px        
 
 Vector   28  Occ=0.000000D+00  E= 3.221613D-02
              MO Center=  3.9D-02, -6.2D-01, -1.3D-03, r^2= 2.9D+01
   Bfn.  Coefficient  Atom+Function         Bfn.  Coefficient  Atom+Function  
  ----- ------------  ---------------      ----- ------------  ---------------
     5      6.396849   1 C  s               326     -4.998345   9 H  s         
   303      3.725461   8 H  s               349      3.725783  10 H  s         
    97     -2.179791   3 C  s               154     -2.176327   4 C  py        
   189     -2.179436   5 C  s               199     -1.647648   5 C  px        
   245      1.634030   6 C  px               61     -1.580540   2 C  px        
 
 Vector   29  Occ=0.000000D+00  E= 4.329194D-02
              MO Center=  1.4D-02, -2.2D-01,  1.4D-03, r^2= 1.3D+01
   Bfn.  Coefficient  Atom+Function         Bfn.  Coefficient  Atom+Function  
  ----- ------------  ---------------      ----- ------------  ---------------
   155      0.598632   4 C  pz               63      0.576350   2 C  pz        
   247      0.576308   6 C  pz              143     -0.419301   4 C  s         
    51      0.262787   2 C  s               235      0.263196   6 C  s         
    17     -0.260397   1 C  pz               60     -0.154789   2 C  pz        
   244     -0.154812   6 C  pz              289     -0.123435   7 H  pz        
 
 Vector   30  Occ=0.000000D+00  E= 5.496323D-02
              MO Center=  9.4D-03, -1.5D-01, -2.3D-03, r^2= 1.5D+01
   Bfn.  Coefficient  Atom+Function         Bfn.  Coefficient  Atom+Function  
  ----- ------------  ---------------      ----- ------------  ---------------
     5     10.709976   1 C  s               143      5.281730   4 C  s         
    51     -4.488304   2 C  s               235     -4.488251   6 C  s         
   303     -2.801156   8 H  s               349     -2.801090  10 H  s         
   326      2.060432   9 H  s               199      2.006583   5 C  px        
    97     -1.951777   3 C  s               189     -1.951666   5 C  s         
 
 Vector   31  Occ=0.000000D+00  E= 6.334934D-02
              MO Center= -4.1D-02,  6.5D-01, -6.4D-03, r^2= 2.8D+01
   Bfn.  Coefficient  Atom+Function         Bfn.  Coefficient  Atom+Function  
  ----- ------------  ---------------      ----- ------------  ---------------
     5     24.376226   1 C  s                51     -9.851833   2 C  s         
   235     -9.851715   6 C  s               143      7.619256   4 C  s         
    97     -6.510726   3 C  s               189     -6.510670   5 C  s         
   326      5.864562   9 H  s               154      4.770394   4 C  py        
   303     -4.682038   8 H  s               349     -4.682189  10 H  s         
 
 Vector   32  Occ=0.000000D+00  E= 6.574541D-02
              MO Center=  1.6D-03, -2.5D-02, -4.1D-03, r^2= 1.8D+01
   Bfn.  Coefficient  Atom+Function         Bfn.  Coefficient  Atom+Function  
  ----- ------------  ---------------      ----- ------------  ---------------
   109      0.976593   3 C  pz              201     -0.976575   5 C  pz        
    63      0.770259   2 C  pz              247     -0.770232   6 C  pz        
   169     -0.676966   4 C  d  1             31     -0.583328   1 C  d  1      
   106      0.492476   3 C  pz              198     -0.492484   5 C  pz        
    60      0.488344   2 C  pz              244     -0.488322   6 C  pz        
 
 Vector   33  Occ=0.000000D+00  E= 6.826326D-02
              MO Center= -1.2D-02,  1.9D-01,  6.7D-03, r^2= 1.8D+01
   Bfn.  Coefficient  Atom+Function         Bfn.  Coefficient  Atom+Function  
  ----- ------------  ---------------      ----- ------------  ---------------
    63      1.024305   2 C  pz              247      1.024274   6 C  pz        
   109     -0.811946   3 C  pz              201     -0.811835   5 C  pz        
   155     -0.750692   4 C  pz               14      0.629608   1 C  pz        
   152     -0.617628   4 C  pz               17      0.458673   1 C  pz        
   213     -0.449524   5 C  d -1            121     -0.405704   3 C  d -1      
 
 Vector   34  Occ=0.000000D+00  E= 7.645676D-02
              MO Center=  9.2D-03, -1.6D-01,  3.7D-03, r^2= 3.4D+01
   Bfn.  Coefficient  Atom+Function         Bfn.  Coefficient  Atom+Function  
  ----- ------------  ---------------      ----- ------------  ---------------
    51     13.865424   2 C  s               235    -13.867351   6 C  s         
    97     12.411973   3 C  s               189    -12.412818   5 C  s         
    15      7.679012   1 C  px              153      7.709658   4 C  px        
   107      4.764845   3 C  px              303      4.691955   8 H  s         
   349     -4.691310  10 H  s               199      4.461823   5 C  px        
 
 Vector   35  Occ=0.000000D+00  E= 7.792269D-02
              MO Center=  2.1D-01, -3.3D+00, -1.5D-02, r^2= 2.1D+01
   Bfn.  Coefficient  Atom+Function         Bfn.  Coefficient  Atom+Function  
  ----- ------------  ---------------      ----- ------------  ---------------
   143     18.265682   4 C  s                51    -13.443469   2 C  s         
   235    -13.439143   6 C  s               326      7.025317   9 H  s         
    62      5.652188   2 C  py              246      5.675969   6 C  py        
   200      5.393155   5 C  py              154      5.272802   4 C  py        
   108      5.036258   3 C  py              279      4.189874   7 H  s         
 
 Vector   36  Occ=0.000000D+00  E= 8.155326D-02
              MO Center= -8.8D-02,  1.4D+00,  1.3D-02, r^2= 2.8D+01
   Bfn.  Coefficient  Atom+Function         Bfn.  Coefficient  Atom+Function  
  ----- ------------  ---------------      ----- ------------  ---------------
   143     20.710497   4 C  s                51     -8.946377   2 C  s         
   235     -8.948931   6 C  s               246      5.261146   6 C  py        
    62      5.167095   2 C  py              325     -4.965489   9 H  s         
   280     -4.564517   7 H  s               372     -4.565010  11 H  s         
   200      4.483674   5 C  py              326      4.500317   9 H  s         
 
 Vector   37  Occ=0.000000D+00  E= 8.317358D-02
              MO Center=  4.6D-02, -7.3D-01, -6.0D-04, r^2= 2.2D+01
   Bfn.  Coefficient  Atom+Function         Bfn.  Coefficient  Atom+Function  
  ----- ------------  ---------------      ----- ------------  ---------------
    97      4.941796   3 C  s               189     -4.942085   5 C  s         
    51     -3.129738   2 C  s               235      3.132152   6 C  s         
   108      2.795675   3 C  py              303      2.803897   8 H  s         
   349     -2.803919  10 H  s               200     -2.681792   5 C  py        
   153      2.603883   4 C  px               96      2.072618   3 C  s         
 
 Vector   38  Occ=0.000000D+00  E= 9.540187D-02
              MO Center= -5.5D-02,  8.8D-01,  4.6D-03, r^2= 3.1D+01
   Bfn.  Coefficient  Atom+Function         Bfn.  Coefficient  Atom+Function  
  ----- ------------  ---------------      ----- ------------  ---------------
    51     17.681206   2 C  s               235    -17.682936   6 C  s         
   280      7.217281   7 H  s               372     -7.217281  11 H  s         
    97     -6.906594   3 C  s               189      6.906855   5 C  s         
   108     -6.460861   3 C  py              303     -6.201644   8 H  s         
   349      6.201107  10 H  s               200      5.918562   5 C  py        
 
 Vector   39  Occ=0.000000D+00  E= 1.018004D-01
              MO Center= -7.1D-03,  1.1D-01, -1.8D-04, r^2= 1.9D+01
   Bfn.  Coefficient  Atom+Function         Bfn.  Coefficient  Atom+Function  
  ----- ------------  ---------------      ----- ------------  ---------------
    51     13.736022   2 C  s               235    -13.735066   6 C  s         
    97     10.884309   3 C  s               189    -10.884692   5 C  s         
    15     10.000984   1 C  px              153      9.716686   4 C  px        
   246     -6.096596   6 C  py              108     -6.023567   3 C  py        
   200      5.990378   5 C  py               62      5.910209   2 C  py        
 
 Vector   40  Occ=0.000000D+00  E= 1.064759D-01
              MO Center= -8.0D-03,  1.3D-01,  3.2D-03, r^2= 2.1D+01
   Bfn.  Coefficient  Atom+Function         Bfn.  Coefficient  Atom+Function  
  ----- ------------  ---------------      ----- ------------  ---------------
   143     18.271989   4 C  s                51     -9.936692   2 C  s         
   235     -9.936676   6 C  s                 5     -9.460840   1 C  s         
   107     -8.758085   3 C  px              199      7.977077   5 C  px        
   245     -7.043060   6 C  px              200      6.725612   5 C  py        
    61      6.488199   2 C  px              108      5.671037   3 C  py        
 
 Vector   41  Occ=0.000000D+00  E= 1.082039D-01
              MO Center= -1.0D-02,  1.6D-01, -1.2D-03, r^2= 2.2D+01
   Bfn.  Coefficient  Atom+Function         Bfn.  Coefficient  Atom+Function  
  ----- ------------  ---------------      ----- ------------  ---------------
    63      3.391625   2 C  pz              247     -3.391717   6 C  pz        
   109     -3.363031   3 C  pz              201      3.363556   5 C  pz        
    60      0.696880   2 C  pz              244     -0.696901   6 C  pz        
   106     -0.636807   3 C  pz              198      0.636915   5 C  pz        
    77     -0.380382   2 C  d  1            215      0.361322   5 C  d  1      
 
 Vector   42  Occ=0.000000D+00  E= 1.089646D-01
              MO Center=  3.0D-02, -4.7D-01,  6.1D-03, r^2= 2.1D+01
   Bfn.  Coefficient  Atom+Function         Bfn.  Coefficient  Atom+Function  
  ----- ------------  ---------------      ----- ------------  ---------------
   155      5.312783   4 C  pz              109     -3.437312   3 C  pz        
   201     -3.436893   5 C  pz               17      2.508300   1 C  pz        
   152      0.981904   4 C  pz              106     -0.602677   3 C  pz        
   198     -0.602608   5 C  pz              167      0.568919   4 C  d -1      
   143      0.520865   4 C  s                14      0.504095   1 C  pz        
 
 Vector   43  Occ=0.000000D+00  E= 1.095009D-01
              MO Center=  2.9D-02, -4.5D-01, -6.5D-03, r^2= 2.7D+01
   Bfn.  Coefficient  Atom+Function         Bfn.  Coefficient  Atom+Function  
  ----- ------------  ---------------      ----- ------------  ---------------
   326      7.660843   9 H  s               154      7.044974   4 C  py        
   303     -6.467951   8 H  s               349     -6.468296  10 H  s         
   143     -5.590204   4 C  s               108     -4.420739   3 C  py        
   200     -4.174909   5 C  py               62     -4.148694   2 C  py        
   246     -4.129776   6 C  py                4      3.919063   1 C  s         
 
 Vector   44  Occ=0.000000D+00  E= 1.178166D-01
              MO Center= -4.1D-02,  6.5D-01, -3.4D-03, r^2= 1.4D+01
   Bfn.  Coefficient  Atom+Function         Bfn.  Coefficient  Atom+Function  
  ----- ------------  ---------------      ----- ------------  ---------------
    17      6.879712   1 C  pz               63     -6.023062   2 C  pz        
   247     -6.022894   6 C  pz              109      5.053173   3 C  pz        
   201      5.052996   5 C  pz              155     -4.823514   4 C  pz        
    14      1.235892   1 C  pz               60     -1.020580   2 C  pz        
   244     -1.020548   6 C  pz              106      0.892359   3 C  pz        
 
 Vector   45  Occ=0.000000D+00  E= 1.264077D-01
              MO Center= -1.8D-02,  2.9D-01, -1.4D-04, r^2= 2.5D+01
   Bfn.  Coefficient  Atom+Function         Bfn.  Coefficient  Atom+Function  
  ----- ------------  ---------------      ----- ------------  ---------------
    51      7.588310   2 C  s               235     -7.588229   6 C  s         
   107      7.204072   3 C  px              199      7.126894   5 C  px        
   245     -7.037198   6 C  px               61     -6.926910   2 C  px        
    15      6.443891   1 C  px               97     -6.193789   3 C  s         
   189      6.193845   5 C  s               153     -5.818542   4 C  px        
 
 Vector   46  Occ=0.000000D+00  E= 1.274499D-01
              MO Center= -1.2D-02,  1.9D-01, -2.3D-04, r^2= 2.6D+01
   Bfn.  Coefficient  Atom+Function         Bfn.  Coefficient  Atom+Function  
  ----- ------------  ---------------      ----- ------------  ---------------
   154     -8.032231   4 C  py               16      7.424992   1 C  py        
   108      6.889039   3 C  py               62     -6.576391   2 C  py        
   200      6.571174   5 C  py              246     -6.383534   6 C  py        
   326     -4.051529   9 H  s                 5      3.564949   1 C  s         
   303      3.164673   8 H  s               349      3.165041  10 H  s         
 
 Vector   47  Occ=0.000000D+00  E= 1.609546D-01
              MO Center= -8.5D-03,  1.4D-01,  2.9D-04, r^2= 1.7D+01
   Bfn.  Coefficient  Atom+Function         Bfn.  Coefficient  Atom+Function  
  ----- ------------  ---------------      ----- ------------  ---------------
    17      8.192848   1 C  pz               63     -8.004460   2 C  pz        
   247     -8.004567   6 C  pz              155     -7.856603   4 C  pz        
   109      7.771265   3 C  pz              201      7.771375   5 C  pz        
    60     -1.191919   2 C  pz              106      1.192800   3 C  pz        
   198      1.192830   5 C  pz              244     -1.191949   6 C  pz        
 
 Vector   48  Occ=0.000000D+00  E= 1.660207D-01
              MO Center= -8.9D-02,  1.4D+00, -4.0D-03, r^2= 2.2D+01
   Bfn.  Coefficient  Atom+Function         Bfn.  Coefficient  Atom+Function  
  ----- ------------  ---------------      ----- ------------  ---------------
     5     59.212005   1 C  s                51    -25.984402   2 C  s         
   143     25.966102   4 C  s               235    -25.985113   6 C  s         
    97    -14.416197   3 C  s               189    -14.415478   5 C  s         
   154      7.429256   4 C  py              245      6.814336   6 C  px        
    61     -6.399615   2 C  px              326      6.156700   9 H  s         
 
 Vector   49  Occ=0.000000D+00  E= 1.754198D-01
              MO Center=  2.5D-02, -3.9D-01,  1.2D-02, r^2= 1.1D+01
   Bfn.  Coefficient  Atom+Function         Bfn.  Coefficient  Atom+Function  
  ----- ------------  ---------------      ----- ------------  ---------------
   335      1.104655   9 H  pz              312      1.079139   8 H  pz        
   358      1.079086  10 H  pz              289      0.973151   7 H  pz        
   381      0.973108  11 H  pz               17      0.959740   1 C  pz        
    63     -0.885294   2 C  pz              247     -0.885263   6 C  pz        
   106     -0.843076   3 C  pz              198     -0.843020   5 C  pz        
 
 Vector   50  Occ=0.000000D+00  E= 1.864253D-01
              MO Center=  3.4D-02, -5.5D-01, -8.2D-03, r^2= 1.5D+01
   Bfn.  Coefficient  Atom+Function         Bfn.  Coefficient  Atom+Function  
  ----- ------------  ---------------      ----- ------------  ---------------
     5     15.510482   1 C  s                97     -7.274225   3 C  s         
   189     -7.273802   5 C  s                51     -4.472376   2 C  s         
   235     -4.472180   6 C  s               325      4.426970   9 H  s         
    62     -4.046321   2 C  py              154      3.979925   4 C  py        
   246     -3.824299   6 C  py              302      3.261462   8 H  s         
 
 Vector   51  Occ=0.000000D+00  E= 1.980399D-01
              MO Center= -3.0D-02,  4.7D-01, -5.0D-03, r^2= 2.3D+01
   Bfn.  Coefficient  Atom+Function         Bfn.  Coefficient  Atom+Function  
  ----- ------------  ---------------      ----- ------------  ---------------
    51     44.602311   2 C  s               235    -44.589908   6 C  s         
    97     25.203121   3 C  s               189    -25.206459   5 C  s         
    15     18.497275   1 C  px              153     17.066934   4 C  px        
   302    -14.010156   8 H  s               348     14.011254  10 H  s         
   200      9.224944   5 C  py              108     -8.512249   3 C  py        
 
 Vector   52  Occ=0.000000D+00  E= 1.984409D-01
              MO Center=  4.6D-02, -7.3D-01,  2.0D-03, r^2= 2.3D+01
   Bfn.  Coefficient  Atom+Function         Bfn.  Coefficient  Atom+Function  
  ----- ------------  ---------------      ----- ------------  ---------------
   143     61.311435   4 C  s                51    -34.524560   2 C  s         
   235    -34.540640   6 C  s               325    -16.864324   9 H  s         
    62     14.720360   2 C  py              246     14.447956   6 C  py        
   200     13.768529   5 C  py              108     12.557066   3 C  py        
     5    -11.577126   1 C  s               279     11.177711   7 H  s         
 
 Vector   53  Occ=0.000000D+00  E= 2.154374D-01
              MO Center=  8.8D-02, -1.4D+00,  2.3D-03, r^2= 1.5D+01
   Bfn.  Coefficient  Atom+Function         Bfn.  Coefficient  Atom+Function  
  ----- ------------  ---------------      ----- ------------  ---------------
    97     13.862253   3 C  s               189    -13.861743   5 C  s         
    96      6.548158   3 C  s               188     -6.548219   5 C  s         
   153      6.323863   4 C  px              279     -5.136972   7 H  s         
   371      5.136736  11 H  s               303      4.737036   8 H  s         
   349     -4.736774  10 H  s               246     -4.493596   6 C  py        
 
 Vector   54  Occ=0.000000D+00  E= 2.182739D-01
              MO Center=  1.8D-02, -2.8D-01, -1.0D-03, r^2= 1.5D+01
   Bfn.  Coefficient  Atom+Function         Bfn.  Coefficient  Atom+Function  
  ----- ------------  ---------------      ----- ------------  ---------------
   143     25.781510   4 C  s                51    -17.780766   2 C  s         
   235    -17.792378   6 C  s                 5     15.977307   1 C  s         
    16     -6.446777   1 C  py              325     -6.049511   9 H  s         
    62      4.840189   2 C  py              246      4.722941   6 C  py        
   279      3.739291   7 H  s               371      3.739853  11 H  s         
 
 Vector   55  Occ=0.000000D+00  E= 2.191107D-01
              MO Center=  5.4D-03, -8.4D-02, -1.5D-02, r^2= 1.5D+01
   Bfn.  Coefficient  Atom+Function         Bfn.  Coefficient  Atom+Function  
  ----- ------------  ---------------      ----- ------------  ---------------
    51     19.802986   2 C  s               235    -19.793577   6 C  s         
   108     -8.471188   3 C  py              200      8.112948   5 C  py        
    15      7.529345   1 C  px              302     -6.934321   8 H  s         
   348      6.934354  10 H  s               153      6.304462   4 C  px        
   246     -4.034556   6 C  py               62      3.898440   2 C  py        
 
 Vector   56  Occ=0.000000D+00  E= 2.301179D-01
              MO Center= -1.8D-02,  2.9D-01, -1.0D-02, r^2= 1.8D+01
   Bfn.  Coefficient  Atom+Function         Bfn.  Coefficient  Atom+Function  
  ----- ------------  ---------------      ----- ------------  ---------------
   199      4.912653   5 C  px              107      4.646670   3 C  px        
   153     -3.562076   4 C  px               50     -3.270342   2 C  s         
   234      3.269952   6 C  s               303      3.158553   8 H  s         
   349     -3.157907  10 H  s                15     -2.624342   1 C  px        
   108      2.422413   3 C  py               59      1.953578   2 C  py        
 
 Vector   57  Occ=0.000000D+00  E= 2.311977D-01
              MO Center= -2.1D-05,  4.6D-04,  3.4D-02, r^2= 1.6D+01
   Bfn.  Coefficient  Atom+Function         Bfn.  Coefficient  Atom+Function  
  ----- ------------  ---------------      ----- ------------  ---------------
   106      2.142162   3 C  pz              198     -2.142171   5 C  pz        
    60      2.046182   2 C  pz              244     -2.046143   6 C  pz        
   312     -1.817905   8 H  pz              358      1.817957  10 H  pz        
   289     -1.719792   7 H  pz              381      1.719748  11 H  pz        
   169     -1.379109   4 C  d  1             31     -1.246951   1 C  d  1      
 
 Vector   58  Occ=0.000000D+00  E= 2.354328D-01
              MO Center= -1.3D-02,  2.1D-01, -3.8D-04, r^2= 1.6D+01
   Bfn.  Coefficient  Atom+Function         Bfn.  Coefficient  Atom+Function  
  ----- ------------  ---------------      ----- ------------  ---------------
   143     14.938292   4 C  s                51    -10.478795   2 C  s         
   235    -10.470537   6 C  s               107     -8.190934   3 C  px        
   199      7.761843   5 C  px               61      5.431461   2 C  px        
   245     -5.310058   6 C  px              303     -4.418909   8 H  s         
   349     -4.420341  10 H  s                 5      4.073383   1 C  s         
 
 Vector   59  Occ=0.000000D+00  E= 2.365041D-01
              MO Center= -4.6D-03,  7.4D-02, -8.6D-03, r^2= 1.7D+01
   Bfn.  Coefficient  Atom+Function         Bfn.  Coefficient  Atom+Function  
  ----- ------------  ---------------      ----- ------------  ---------------
    97    -33.167425   3 C  s               189     33.167853   5 C  s         
    51     31.542676   2 C  s               235    -31.546133   6 C  s         
    96    -14.380823   3 C  s               188     14.380313   5 C  s         
   279     10.796224   7 H  s               371    -10.795292  11 H  s         
   302    -10.658004   8 H  s               348     10.657851  10 H  s         
 
 Vector   60  Occ=0.000000D+00  E= 2.434520D-01
              MO Center=  2.7D-03, -4.3D-02,  1.1D-03, r^2= 1.5D+01
   Bfn.  Coefficient  Atom+Function         Bfn.  Coefficient  Atom+Function  
  ----- ------------  ---------------      ----- ------------  ---------------
   152      3.413760   4 C  pz               14     -3.025765   1 C  pz        
   289      2.170801   7 H  pz              381      2.170811  11 H  pz        
   335     -2.124811   9 H  pz              261      2.001722   6 C  d  1      
    77     -1.987048   2 C  d  1             63     -1.598001   2 C  pz        
   247     -1.597927   6 C  pz              155      1.369910   4 C  pz        
 
 Vector   61  Occ=0.000000D+00  E= 2.594971D-01
              MO Center=  3.8D-02, -6.0D-01,  2.6D-04, r^2= 1.7D+01
   Bfn.  Coefficient  Atom+Function         Bfn.  Coefficient  Atom+Function  
  ----- ------------  ---------------      ----- ------------  ---------------
     5      8.697820   1 C  s               108     -6.641409   3 C  py        
   200     -6.052071   5 C  py              303     -5.176467   8 H  s         
   349     -5.176402  10 H  s               199      5.075518   5 C  px        
   197     -4.838497   5 C  py              143     -4.810326   4 C  s         
   105     -4.736584   3 C  py              154      4.351001   4 C  py        
 
 Vector   62  Occ=0.000000D+00  E= 2.620246D-01
              MO Center=  6.9D-02, -1.1D+00,  8.6D-04, r^2= 1.7D+01
   Bfn.  Coefficient  Atom+Function         Bfn.  Coefficient  Atom+Function  
  ----- ------------  ---------------      ----- ------------  ---------------
     5     18.968001   1 C  s               154     15.382887   4 C  py        
   143     15.149051   4 C  s                51    -14.562336   2 C  s         
   235    -14.563582   6 C  s               326      9.188567   9 H  s         
     4      6.017962   1 C  s               108     -4.781342   3 C  py        
    97     -4.662157   3 C  s               189     -4.660760   5 C  s         
 
 Vector   63  Occ=0.000000D+00  E= 2.676743D-01
              MO Center= -2.7D-02,  4.3D-01, -2.1D-04, r^2= 2.0D+01
   Bfn.  Coefficient  Atom+Function         Bfn.  Coefficient  Atom+Function  
  ----- ------------  ---------------      ----- ------------  ---------------
    51     20.194876   2 C  s               235    -20.194565   6 C  s         
    97    -11.910126   3 C  s               189     11.910510   5 C  s         
    61     11.014714   2 C  px              245     10.263777   6 C  px        
    96     -8.753671   3 C  s               188      8.753838   5 C  s         
   279      8.763908   7 H  s               371     -8.764149  11 H  s         
 
 Vector   64  Occ=0.000000D+00  E= 2.747975D-01
              MO Center= -1.5D-03,  2.3D-02, -1.5D-03, r^2= 1.4D+01
   Bfn.  Coefficient  Atom+Function         Bfn.  Coefficient  Atom+Function  
  ----- ------------  ---------------      ----- ------------  ---------------
   143      8.948928   4 C  s                 5      8.703693   1 C  s         
   154      5.767442   4 C  py              279     -5.654679   7 H  s         
   371     -5.654278  11 H  s               302     -4.648941   8 H  s         
   348     -4.648526  10 H  s               325     -4.358412   9 H  s         
    16     -4.033185   1 C  py              246      3.262144   6 C  py        
 
 Vector   65  Occ=0.000000D+00  E= 2.829791D-01
              MO Center= -1.2D-02,  1.8D-01,  1.2D-03, r^2= 1.6D+01
   Bfn.  Coefficient  Atom+Function         Bfn.  Coefficient  Atom+Function  
  ----- ------------  ---------------      ----- ------------  ---------------
    12      9.528645   1 C  px               97      8.894389   3 C  s         
   189     -8.894429   5 C  s               302      8.099643   8 H  s         
   348     -8.099241  10 H  s                51     -8.019078   2 C  s         
   235      8.018538   6 C  s               199      7.631906   5 C  px        
   107      7.159837   3 C  px              150      6.193622   4 C  px        
 
 Vector   66  Occ=0.000000D+00  E= 2.954388D-01
              MO Center= -3.3D-03,  5.2D-02, -1.7D-03, r^2= 1.6D+01
   Bfn.  Coefficient  Atom+Function         Bfn.  Coefficient  Atom+Function  
  ----- ------------  ---------------      ----- ------------  ---------------
    63      3.201335   2 C  pz              109     -3.188613   3 C  pz        
   201      3.188211   5 C  pz              247     -3.201109   6 C  pz        
   289     -2.279347   7 H  pz              381      2.279370  11 H  pz        
    60      2.256819   2 C  pz              244     -2.256833   6 C  pz        
   312      2.261802   8 H  pz              358     -2.261693  10 H  pz        
 
 Vector   67  Occ=0.000000D+00  E= 2.962832D-01
              MO Center= -6.0D-02,  9.6D-01,  1.6D-03, r^2= 1.4D+01
   Bfn.  Coefficient  Atom+Function         Bfn.  Coefficient  Atom+Function  
  ----- ------------  ---------------      ----- ------------  ---------------
     4     10.428000   1 C  s                59     -5.742439   2 C  py        
   243     -5.633621   6 C  py                5      5.529846   1 C  s         
   105     -5.528728   3 C  py              197     -5.140322   5 C  py        
    16      4.276007   1 C  py              279     -4.188521   7 H  s         
   371     -4.188280  11 H  s                13      3.915397   1 C  py        
 
 Vector   68  Occ=0.000000D+00  E= 3.080396D-01
              MO Center=  1.7D-02, -2.7D-01,  8.9D-04, r^2= 1.5D+01
   Bfn.  Coefficient  Atom+Function         Bfn.  Coefficient  Atom+Function  
  ----- ------------  ---------------      ----- ------------  ---------------
   155      5.178009   4 C  pz               14      4.363557   1 C  pz        
   109     -3.739388   3 C  pz              201     -3.739531   5 C  pz        
   335     -2.710410   9 H  pz               60     -2.049459   2 C  pz        
   244     -2.049350   6 C  pz              152      1.852444   4 C  pz        
    17      1.841748   1 C  pz               29     -1.719314   1 C  d -1      
 
 Vector   69  Occ=0.000000D+00  E= 3.150430D-01
              MO Center=  4.7D-03, -7.3D-02, -2.9D-04, r^2= 9.1D+00
   Bfn.  Coefficient  Atom+Function         Bfn.  Coefficient  Atom+Function  
  ----- ------------  ---------------      ----- ------------  ---------------
   261      1.253047   6 C  d  1             77      1.133361   2 C  d  1      
   169     -1.083147   4 C  d  1             75     -1.023464   2 C  d -1      
   259      0.873168   6 C  d -1            289     -0.721217   7 H  pz        
   381      0.721219  11 H  pz               31      0.634805   1 C  d  1      
    60     -0.336389   2 C  pz              244      0.336601   6 C  pz        
 
 Vector   70  Occ=0.000000D+00  E= 3.284720D-01
              MO Center=  3.9D-02, -6.2D-01, -3.6D-03, r^2= 1.5D+01
   Bfn.  Coefficient  Atom+Function         Bfn.  Coefficient  Atom+Function  
  ----- ------------  ---------------      ----- ------------  ---------------
   142     12.143311   4 C  s                96      8.716860   3 C  s         
   188      8.717007   5 C  s               151     -6.837556   4 C  py        
   325     -5.843836   9 H  s                 4     -5.238420   1 C  s         
   334     -5.006169   9 H  py                5      4.905217   1 C  s         
   302     -4.388541   8 H  s               348     -4.387965  10 H  s         
 
 Vector   71  Occ=0.000000D+00  E= 3.347536D-01
              MO Center= -1.6D-03,  2.5D-02,  1.4D-03, r^2= 7.7D+00
   Bfn.  Coefficient  Atom+Function         Bfn.  Coefficient  Atom+Function  
  ----- ------------  ---------------      ----- ------------  ---------------
   289      2.029260   7 H  pz              381      2.029410  11 H  pz        
   335      1.837944   9 H  pz               14     -1.772090   1 C  pz        
   155     -1.703029   4 C  pz               63     -1.545013   2 C  pz        
   247     -1.545031   6 C  pz               77     -1.511880   2 C  d  1      
   261      1.411662   6 C  d  1            106     -1.285148   3 C  pz        
 
 Vector   72  Occ=0.000000D+00  E= 3.433105D-01
              MO Center=  2.4D-02, -3.9D-01,  2.5D-02, r^2= 1.2D+01
   Bfn.  Coefficient  Atom+Function         Bfn.  Coefficient  Atom+Function  
  ----- ------------  ---------------      ----- ------------  ---------------
   169      3.293592   4 C  d  1             31      2.700952   1 C  d  1      
   312     -2.478921   8 H  pz              358      2.478638  10 H  pz        
   123      2.183579   3 C  d  1            215      2.142973   5 C  d  1      
   106     -1.796499   3 C  pz              198      1.796549   5 C  pz        
   289     -1.428195   7 H  pz              381      1.428009  11 H  pz        
 
 Vector   73  Occ=0.000000D+00  E= 3.449131D-01
              MO Center= -3.5D-02,  5.6D-01, -2.8D-02, r^2= 1.2D+01
   Bfn.  Coefficient  Atom+Function         Bfn.  Coefficient  Atom+Function  
  ----- ------------  ---------------      ----- ------------  ---------------
   143     23.681771   4 C  s               325    -12.999811   9 H  s         
   279     11.875033   7 H  s               371     11.878262  11 H  s         
    51    -11.764832   2 C  s               235    -11.772857   6 C  s         
     5     -7.606059   1 C  s               197     -6.891262   5 C  py        
   105     -6.770080   3 C  py              243     -6.013418   6 C  py        
 
 Vector   74  Occ=0.000000D+00  E= 3.478325D-01
              MO Center=  9.7D-03, -1.5D-01, -2.5D-02, r^2= 1.2D+01
   Bfn.  Coefficient  Atom+Function         Bfn.  Coefficient  Atom+Function  
  ----- ------------  ---------------      ----- ------------  ---------------
    51     21.167598   2 C  s               235    -21.164855   6 C  s         
   302    -11.976470   8 H  s               348     11.979230  10 H  s         
    97     10.947298   3 C  s               189    -10.950316   5 C  s         
   279     -9.757858   7 H  s               371      9.750930  11 H  s         
    12     -8.089643   1 C  px              150     -7.030553   4 C  px        
 
 Vector   75  Occ=0.000000D+00  E= 3.481661D-01
              MO Center=  3.3D-02, -5.2D-01,  2.3D-02, r^2= 1.3D+01
   Bfn.  Coefficient  Atom+Function         Bfn.  Coefficient  Atom+Function  
  ----- ------------  ---------------      ----- ------------  ---------------
   155     -3.965433   4 C  pz               17      3.774884   1 C  pz        
   109      3.556051   3 C  pz              201      3.556111   5 C  pz        
    63     -3.446076   2 C  pz              247     -3.446170   6 C  pz        
   152     -2.997946   4 C  pz              213     -2.305121   5 C  d -1      
   289      2.264073   7 H  pz              381      2.263875  11 H  pz        
 
 Vector   76  Occ=0.000000D+00  E= 3.527371D-01
              MO Center=  3.3D-02, -5.2D-01,  7.4D-03, r^2= 1.4D+01
   Bfn.  Coefficient  Atom+Function         Bfn.  Coefficient  Atom+Function  
  ----- ------------  ---------------      ----- ------------  ---------------
    17      6.394901   1 C  pz               63     -5.862982   2 C  pz        
   247     -5.863038   6 C  pz              109      5.130413   3 C  pz        
   201      5.130441   5 C  pz              155     -4.858730   4 C  pz        
   335      3.951874   9 H  pz               14      3.793223   1 C  pz        
   167      3.069958   4 C  d -1             60     -2.681120   2 C  pz        
 
 Vector   77  Occ=0.000000D+00  E= 3.546457D-01
              MO Center= -2.0D-02,  3.1D-01,  1.5D-03, r^2= 1.5D+01
   Bfn.  Coefficient  Atom+Function         Bfn.  Coefficient  Atom+Function  
  ----- ------------  ---------------      ----- ------------  ---------------
     5     31.281669   1 C  s               143     15.887897   4 C  s         
    51    -15.725317   2 C  s               235    -15.722843   6 C  s         
   151    -11.055268   4 C  py              196     -7.580590   5 C  px        
    50      7.376446   2 C  s               234      7.376076   6 C  s         
    13      7.261604   1 C  py              104      7.141862   3 C  px        
 
 Vector   78  Occ=0.000000D+00  E= 3.599066D-01
              MO Center= -4.7D-02,  7.5D-01,  2.7D-03, r^2= 1.3D+01
   Bfn.  Coefficient  Atom+Function         Bfn.  Coefficient  Atom+Function  
  ----- ------------  ---------------      ----- ------------  ---------------
   289      3.405732   7 H  pz              381     -3.405824  11 H  pz        
    60      3.157571   2 C  pz              244     -3.157602   6 C  pz        
    77     -3.083524   2 C  d  1            121     -3.087863   3 C  d -1      
   259      3.024957   6 C  d -1            213      2.786519   5 C  d -1      
   312     -2.763129   8 H  pz              358      2.763007  10 H  pz        
 
 Vector   79  Occ=0.000000D+00  E= 3.685608D-01
              MO Center=  3.6D-02, -5.7D-01, -4.4D-03, r^2= 1.3D+01
   Bfn.  Coefficient  Atom+Function         Bfn.  Coefficient  Atom+Function  
  ----- ------------  ---------------      ----- ------------  ---------------
    96     10.730114   3 C  s               188     10.728977   5 C  s         
   104     -8.499258   3 C  px              196      8.489636   5 C  px        
   142     -7.535894   4 C  s                 5      7.225173   1 C  s         
   212      5.398047   5 C  d -2            258      5.320356   6 C  d -2      
   120     -5.226626   3 C  d -2            242     -5.090154   6 C  px        
 
 Vector   80  Occ=0.000000D+00  E= 3.720987D-01
              MO Center=  2.0D-02, -3.1D-01, -2.4D-03, r^2= 1.3D+01
   Bfn.  Coefficient  Atom+Function         Bfn.  Coefficient  Atom+Function  
  ----- ------------  ---------------      ----- ------------  ---------------
    97      9.836452   3 C  s               189     -9.835250   5 C  s         
    50      9.028017   2 C  s               234     -9.027547   6 C  s         
   279     -5.479611   7 H  s               371      5.481956  11 H  s         
   357      5.246683  10 H  py              311     -5.125506   8 H  py        
   212     -4.882904   5 C  d -2             51     -4.812671   2 C  s         
 
 Vector   81  Occ=0.000000D+00  E= 3.819135D-01
              MO Center=  3.6D-02, -5.7D-01, -2.2D-03, r^2= 1.6D+01
   Bfn.  Coefficient  Atom+Function         Bfn.  Coefficient  Atom+Function  
  ----- ------------  ---------------      ----- ------------  ---------------
   166      9.080189   4 C  d -2            333      7.117758   9 H  px        
   150     -6.663255   4 C  px              216     -6.556384   5 C  d  2      
   124      6.101226   3 C  d  2            279      5.867038   7 H  s         
   371     -5.867316  11 H  s               310      5.085895   8 H  px        
   356      5.022559  10 H  px               96     -4.806261   3 C  s         
 
 Vector   82  Occ=0.000000D+00  E= 3.932679D-01
              MO Center= -2.9D-02,  4.6D-01,  6.3D-03, r^2= 1.5D+01
   Bfn.  Coefficient  Atom+Function         Bfn.  Coefficient  Atom+Function  
  ----- ------------  ---------------      ----- ------------  ---------------
    12     12.180106   1 C  px               51    -11.051118   2 C  s         
   235     11.052703   6 C  s                78     -9.086499   2 C  d  2      
   262      8.757710   6 C  d  2             15     -6.829601   1 C  px        
   216      6.674754   5 C  d  2            153     -5.863287   4 C  px        
   124     -5.832337   3 C  d  2            379     -5.815940  11 H  px        
 
 Vector   83  Occ=0.000000D+00  E= 3.960184D-01
              MO Center= -5.2D-02,  8.3D-01,  5.5D-03, r^2= 1.2D+01
   Bfn.  Coefficient  Atom+Function         Bfn.  Coefficient  Atom+Function  
  ----- ------------  ---------------      ----- ------------  ---------------
   152     -7.528629   4 C  pz              106      7.332517   3 C  pz        
   198      7.332697   5 C  pz               60     -6.478033   2 C  pz        
   244     -6.478133   6 C  pz              167     -6.330891   4 C  d -1      
   215      5.116304   5 C  d  1            123     -4.710197   3 C  d  1      
    14      4.571772   1 C  pz              259      4.024391   6 C  d -1      
 
 Vector   84  Occ=0.000000D+00  E= 4.017354D-01
              MO Center= -3.3D-02,  5.2D-01,  3.1D-03, r^2= 1.5D+01
   Bfn.  Coefficient  Atom+Function         Bfn.  Coefficient  Atom+Function  
  ----- ------------  ---------------      ----- ------------  ---------------
     5     51.755977   1 C  s                51    -19.778347   2 C  s         
   235    -19.775013   6 C  s                97    -17.392980   3 C  s         
   189    -17.390336   5 C  s               143     11.660542   4 C  s         
   142    -10.268365   4 C  s                 4     -9.675412   1 C  s         
    50     -7.941983   2 C  s               234     -7.942812   6 C  s         
 
 Vector   85  Occ=0.000000D+00  E= 4.053083D-01
              MO Center= -5.4D-03,  8.6D-02, -7.9D-04, r^2= 1.3D+01
   Bfn.  Coefficient  Atom+Function         Bfn.  Coefficient  Atom+Function  
  ----- ------------  ---------------      ----- ------------  ---------------
[...]
     Occ.   13 beta  a   ---  Virt.   21 beta  a   -0.05600 X
     Occ.   15 beta  a   ---  Virt.   21 beta  a   -0.10245 X
     Occ.   19 beta  a   ---  Virt.   24 beta  a   -0.22095 X
     Occ.   19 beta  a   ---  Virt.   29 beta  a    0.05001 X
     Occ.   20 beta  a   ---  Virt.   22 beta  a    0.14465 X
  ----------------------------------------------------------------------------
  Root  27         a              0.251973558 a.u.                6.8566 eV 
  <S2> =   1.6619
  ----------------------------------------------------------------------------
     Transition Moments    X -0.00025   Y  0.00320   Z  0.24503
     Transition Moments   XX  0.00032  XY -0.00074  XZ -0.01065
     Transition Moments   YY  0.01147  YZ  0.16708  ZZ -0.00025
     Dipole Oscillator Strength                    0.0100869601
     Electric Quadrupole                           0.0000000024
     Magnetic Dipole                               0.0000000311
     Total Oscillator Strength                     0.0100869936
 
     Occ.   19 alpha a   ---  Virt.   26 alpha a    0.98231 X
     Occ.   19 alpha a   ---  Virt.   35 alpha a   -0.07113 X
     Occ.   19 alpha a   ---  Virt.   36 alpha a   -0.07364 X
     Occ.   20 alpha a   ---  Virt.   25 alpha a    0.11468 X
     Occ.   20 beta  a   ---  Virt.   26 beta  a    0.05038 X
  ----------------------------------------------------------------------------
  Root  28         a              0.252620925 a.u.                6.8742 eV 
  <S2> =   1.8894
  ----------------------------------------------------------------------------
     Transition Moments    X  0.00237   Y  0.00015   Z  0.00006
     Transition Moments   XX  0.00056  XY -0.00448  XZ  0.39291
     Transition Moments   YY -0.00056  YZ  0.02479  ZZ  0.00000
     Dipole Oscillator Strength                    0.0000009489
     Electric Quadrupole                           0.0000000133
     Magnetic Dipole                               0.0000000096
     Total Oscillator Strength                     0.0000009718
 
     Occ.   19 alpha a   ---  Virt.   25 alpha a   -0.24746 X
     Occ.   20 alpha a   ---  Virt.   26 alpha a   -0.96034 X
     Occ.   20 alpha a   ---  Virt.   35 alpha a    0.06152 X
     Occ.   20 alpha a   ---  Virt.   36 alpha a    0.06548 X
     Occ.   19 beta  a   ---  Virt.   26 beta  a    0.06484 X
  ----------------------------------------------------------------------------
  Root  29         a              0.253986991 a.u.                6.9113 eV 
  <S2> =   1.6185
  ----------------------------------------------------------------------------
     Transition Moments    X -0.01453   Y -0.00091   Z -0.00001
     Transition Moments   XX -0.00072  XY  0.00574  XZ -0.49358
     Transition Moments   YY  0.00074  YZ -0.03111  ZZ  0.00000
     Dipole Oscillator Strength                    0.0000358781
     Electric Quadrupole                           0.0000000213
     Magnetic Dipole                               0.0000000109
     Total Oscillator Strength                     0.0000359103
 
     Occ.   20 alpha a   ---  Virt.   26 alpha a    0.06939 X
     Occ.   19 beta  a   ---  Virt.   26 beta  a    0.98511 X
     Occ.   19 beta  a   ---  Virt.   35 beta  a   -0.05782 X
     Occ.   19 beta  a   ---  Virt.   36 beta  a   -0.07403 X
     Occ.   20 beta  a   ---  Virt.   25 beta  a    0.09685 X
  ----------------------------------------------------------------------------
  Root  30         a              0.254756047 a.u.                6.9323 eV 
  <S2> =   0.7708
  ----------------------------------------------------------------------------
     Transition Moments    X -1.50315   Y -0.09502   Z -0.00000
     Transition Moments   XX -0.02428  XY  0.18984  XZ  0.01261
     Transition Moments   YY  0.02355  YZ  0.00079  ZZ -0.00006
     Dipole Oscillator Strength                    0.3852761886
     Electric Quadrupole                           0.0000000032
     Magnetic Dipole                               0.0000000195
     Total Oscillator Strength                     0.3852762113
 
     Occ.   19 alpha a   ---  Virt.   22 alpha a   -0.38005 X
     Occ.   19 alpha a   ---  Virt.   22 alpha a    0.05311 Y
     Occ.   20 alpha a   ---  Virt.   23 alpha a    0.42679 X
     Occ.   20 alpha a   ---  Virt.   23 alpha a   -0.05109 Y
     Occ.   20 alpha a   ---  Virt.   29 alpha a   -0.14082 X
     Occ.   21 alpha a   ---  Virt.   25 alpha a    0.07643 X
     Occ.   21 alpha a   ---  Virt.   27 alpha a   -0.38972 X
     Occ.   13 beta  a   ---  Virt.   21 beta  a    0.12799 X
     Occ.   15 beta  a   ---  Virt.   21 beta  a    0.27042 X
     Occ.   19 beta  a   ---  Virt.   24 beta  a    0.49853 X
     Occ.   19 beta  a   ---  Virt.   29 beta  a   -0.13913 X
     Occ.   20 beta  a   ---  Virt.   22 beta  a   -0.34835 X
     Occ.   20 beta  a   ---  Virt.   22 beta  a    0.05610 Y
  ----------------------------------------------------------------------------
  Root  31         a              0.255406244 a.u.                6.9500 eV 
  <S2> =   0.8012
  ----------------------------------------------------------------------------
     Transition Moments    X -0.04058   Y  0.63633   Z -0.00119
     Transition Moments   XX  0.65024  XY -0.07812  XZ  0.00009
     Transition Moments   YY  1.88574  YZ -0.00128  ZZ  0.14658
     Dipole Oscillator Strength                    0.0692249519
     Electric Quadrupole                           0.0000000716
     Magnetic Dipole                               0.0000000000
     Total Oscillator Strength                     0.0692250235
 
     Occ.   19 alpha a   ---  Virt.   23 alpha a   -0.10549 X
     Occ.   20 alpha a   ---  Virt.   22 alpha a   -0.11462 X
     Occ.   21 alpha a   ---  Virt.   26 alpha a   -0.18451 X
     Occ.   21 alpha a   ---  Virt.   28 alpha a    0.90984 X
     Occ.   21 alpha a   ---  Virt.   30 alpha a    0.12847 X
     Occ.   21 alpha a   ---  Virt.   31 alpha a    0.16280 X
     Occ.   21 alpha a   ---  Virt.   48 alpha a   -0.05657 X
     Occ.   16 beta  a   ---  Virt.   21 beta  a   -0.18861 X
     Occ.   19 beta  a   ---  Virt.   22 beta  a   -0.10932 X
     Occ.   20 beta  a   ---  Virt.   24 beta  a   -0.09637 X
  ----------------------------------------------------------------------------
  Root  32         a              0.260751744 a.u.                7.0954 eV 
  <S2> =   0.8001
  ----------------------------------------------------------------------------
     Transition Moments    X -0.00012   Y  0.00190   Z -0.09559
     Transition Moments   XX -0.00662  XY -0.00050  XZ  0.04441
     Transition Moments   YY  0.00115  YZ -0.70491  ZZ -0.00073
     Dipole Oscillator Strength                    0.0015890669
     Electric Quadrupole                           0.0000000471
     Magnetic Dipole                               0.0000000330
     Total Oscillator Strength                     0.0015891469
 
     Occ.   21 alpha a   ---  Virt.   29 alpha a    0.97947 X
     Occ.   21 alpha a   ---  Virt.   33 alpha a    0.17994 X
  ----------------------------------------------------------------------------
  Root  33         a              0.265400933 a.u.                7.2219 eV 
  <S2> =   1.7807
  ----------------------------------------------------------------------------
     Transition Moments    X -0.00084   Y -0.00006   Z -0.00000
     Transition Moments   XX  0.00024  XY -0.00185  XZ -0.54581
     Transition Moments   YY -0.00025  YZ -0.03439  ZZ -0.00000
     Dipole Oscillator Strength                    0.0000001252
     Electric Quadrupole                           0.0000000298
     Magnetic Dipole                               0.0000000006
     Total Oscillator Strength                     0.0000001555
 
     Occ.   20 beta  a   ---  Virt.   27 beta  a   -0.99103 X
     Occ.   20 beta  a   ---  Virt.   38 beta  a    0.09649 X
  ----------------------------------------------------------------------------
  Root  34         a              0.267189492 a.u.                7.2706 eV 
  <S2> =   0.8216
  ----------------------------------------------------------------------------
     Transition Moments    X -0.07577   Y  1.20076   Z -0.00171
     Transition Moments   XX -0.01904  XY  0.04278  XZ -0.00046
     Transition Moments   YY -0.69495  YZ  0.00737  ZZ -0.04604
     Dipole Oscillator Strength                    0.2578490259
     Electric Quadrupole                           0.0000000151
     Magnetic Dipole                               0.0000000000
     Total Oscillator Strength                     0.2578490409
 
     Occ.   17 alpha a   ---  Virt.   23 alpha a    0.08608 X
     Occ.   19 alpha a   ---  Virt.   23 alpha a   -0.30513 X
     Occ.   19 alpha a   ---  Virt.   29 alpha a   -0.16160 X
     Occ.   20 alpha a   ---  Virt.   22 alpha a   -0.22282 X
     Occ.   21 alpha a   ---  Virt.   28 alpha a   -0.30120 X
     Occ.   21 alpha a   ---  Virt.   30 alpha a    0.42760 X
     Occ.   21 alpha a   ---  Virt.   31 alpha a   -0.08027 X
     Occ.   14 beta  a   ---  Virt.   21 beta  a    0.08799 X
     Occ.   16 beta  a   ---  Virt.   21 beta  a   -0.50149 X
     Occ.   19 beta  a   ---  Virt.   22 beta  a   -0.22349 X
     Occ.   20 beta  a   ---  Virt.   24 beta  a   -0.30739 X
     Occ.   20 beta  a   ---  Virt.   29 beta  a   -0.34430 X
  ----------------------------------------------------------------------------
  Root  35         a              0.270808583 a.u.                7.3691 eV 
  <S2> =   2.7047
  ----------------------------------------------------------------------------
     Transition Moments    X -0.00001   Y  0.00013   Z -0.00954
     Transition Moments   XX -0.00023  XY -0.00013  XZ  0.00960
     Transition Moments   YY  0.00189  YZ -0.15172  ZZ -0.00049
     Dipole Oscillator Strength                    0.0000164330
     Electric Quadrupole                           0.0000000024
     Magnetic Dipole                               0.0000000000
     Total Oscillator Strength                     0.0000164355
 
     Occ.   20 alpha a   ---  Virt.   27 alpha a    0.79698 X
     Occ.   20 alpha a   ---  Virt.   38 alpha a   -0.08796 X
     Occ.   19 beta  a   ---  Virt.   27 beta  a   -0.57695 X
     Occ.   19 beta  a   ---  Virt.   38 beta  a    0.06823 X
     Occ.   20 beta  a   ---  Virt.   28 beta  a   -0.05378 X
     Occ.   20 beta  a   ---  Virt.   30 beta  a   -0.06116 X
  ----------------------------------------------------------------------------
  Root  36         a              0.271251218 a.u.                7.3811 eV 
  <S2> =   2.7408
  ----------------------------------------------------------------------------
     Transition Moments    X  0.04869   Y  0.00303   Z  0.00000
     Transition Moments   XX  0.00376  XY -0.02853  XZ  0.00015
     Transition Moments   YY -0.00374  YZ -0.00000  ZZ  0.00004
     Dipole Oscillator Strength                    0.0004303654
     Electric Quadrupole                           0.0000000001
     Magnetic Dipole                               0.0000000018
     Total Oscillator Strength                     0.0004303673
 
     Occ.   17 alpha a   ---  Virt.   22 alpha a    0.59780 X
     Occ.   17 alpha a   ---  Virt.   41 alpha a   -0.05240 X
     Occ.   19 alpha a   ---  Virt.   32 alpha a   -0.08384 X
     Occ.   20 alpha a   ---  Virt.   29 alpha a    0.16431 X
     Occ.   20 alpha a   ---  Virt.   44 alpha a   -0.22729 X
     Occ.   20 alpha a   ---  Virt.   47 alpha a    0.17407 X
     Occ.   17 beta  a   ---  Virt.   22 beta  a   -0.64443 X
     Occ.   17 beta  a   ---  Virt.   41 beta  a    0.05431 X
     Occ.   19 beta  a   ---  Virt.   29 beta  a   -0.10210 X
     Occ.   19 beta  a   ---  Virt.   44 beta  a    0.20063 X
     Occ.   19 beta  a   ---  Virt.   47 beta  a   -0.16661 X
     Occ.   20 beta  a   ---  Virt.   31 beta  a    0.10176 X
  ----------------------------------------------------------------------------
  Root  37         a              0.271755851 a.u.                7.3949 eV 
  <S2> =   1.0520
  ----------------------------------------------------------------------------
     Transition Moments    X -0.03227   Y  0.51187   Z -0.00081
     Transition Moments   XX -1.05170  XY -0.11430  XZ -0.00173
     Transition Moments   YY  0.75500  YZ  0.02818  ZZ -0.23955
     Dipole Oscillator Strength                    0.0476583009
     Electric Quadrupole                           0.0000000890
     Magnetic Dipole                               0.0000000000
     Total Oscillator Strength                     0.0476583898
 
     Occ.   17 alpha a   ---  Virt.   23 alpha a    0.06243 X
     Occ.   19 alpha a   ---  Virt.   23 alpha a   -0.09101 X
     Occ.   21 alpha a   ---  Virt.   30 alpha a   -0.79705 X
     Occ.   21 alpha a   ---  Virt.   31 alpha a    0.20542 X
     Occ.   21 alpha a   ---  Virt.   35 alpha a   -0.07433 X
     Occ.   21 alpha a   ---  Virt.   40 alpha a    0.05667 X
     Occ.   14 beta  a   ---  Virt.   21 beta  a    0.06317 X
     Occ.   16 beta  a   ---  Virt.   21 beta  a   -0.18833 X
     Occ.   19 beta  a   ---  Virt.   22 beta  a   -0.05839 X
     Occ.   20 beta  a   ---  Virt.   24 beta  a   -0.09577 X
     Occ.   20 beta  a   ---  Virt.   29 beta  a   -0.48482 X
  ----------------------------------------------------------------------------
  Root  38         a              0.271807406 a.u.                7.3963 eV 
  <S2> =   0.8295
  ----------------------------------------------------------------------------
     Transition Moments    X -0.00084   Y  0.01329   Z -0.02490
     Transition Moments   XX -0.02146  XY -0.00289  XZ  0.05505
     Transition Moments   YY  0.02411  YZ -0.87209  ZZ -0.00987
     Dipole Oscillator Strength                    0.0001444612
     Electric Quadrupole                           0.0000000817
     Magnetic Dipole                               0.0000000038
     Total Oscillator Strength                     0.0001445468
 
     Occ.   20 alpha a   ---  Virt.   27 alpha a    0.57359 X
     Occ.   19 beta  a   ---  Virt.   27 beta  a    0.80029 X
     Occ.   19 beta  a   ---  Virt.   38 beta  a   -0.07508 X
     Occ.   20 beta  a   ---  Virt.   28 beta  a   -0.12798 X
  ----------------------------------------------------------------------------
  Root  39         a              0.272285521 a.u.                7.4093 eV 
  <S2> =   1.7261
  ----------------------------------------------------------------------------
     Transition Moments    X  0.00093   Y  0.00002   Z  0.00002
     Transition Moments   XX  0.00005  XY  0.00042  XZ  0.54901
     Transition Moments   YY -0.00003  YZ  0.03488  ZZ  0.00003
     Dipole Oscillator Strength                    0.0000001583
     Electric Quadrupole                           0.0000000325
     Magnetic Dipole                               0.0000000013
     Total Oscillator Strength                     0.0000001922
 
     Occ.   19 alpha a   ---  Virt.   27 alpha a    0.99033 X
     Occ.   19 alpha a   ---  Virt.   38 alpha a   -0.09594 X
  ----------------------------------------------------------------------------
  Root  40         a              0.272509730 a.u.                7.4154 eV 
  <S2> =   1.9619
  ----------------------------------------------------------------------------
     Transition Moments    X  0.00019   Y -0.00300   Z  0.04148
     Transition Moments   XX  0.00678  XY  0.00076  XZ -0.02785
     Transition Moments   YY -0.00522  YZ  0.44026  ZZ  0.00172
     Dipole Oscillator Strength                    0.0003142263
     Electric Quadrupole                           0.0000000210
     Magnetic Dipole                               0.0000000053
     Total Oscillator Strength                     0.0003142525
 
     Occ.   19 alpha a   ---  Virt.   28 alpha a   -0.11709 X
     Occ.   20 alpha a   ---  Virt.   27 alpha a    0.12643 X
     Occ.   17 beta  a   ---  Virt.   21 beta  a   -0.05507 X
     Occ.   19 beta  a   ---  Virt.   27 beta  a    0.06748 X
     Occ.   20 beta  a   ---  Virt.   28 beta  a    0.96953 X
     Occ.   20 beta  a   ---  Virt.   30 beta  a    0.05584 X
     Occ.   20 beta  a   ---  Virt.   32 beta  a    0.07457 X
     Occ.   20 beta  a   ---  Virt.   43 beta  a    0.08083 X
 
              Target root =      1
          Target symmetry = none
      Ground state energy =   -231.646325359974
        Excitation energy =      0.106293944892
     Excited state energy =   -231.540031415083
 
  stored tddft:energy   -231.540031415083     

 Task  times  cpu:     3623.2s     wall:     3733.6s
 
 
                                NWChem Input Module
                                -------------------
 
 
 Summary of allocated global arrays
-----------------------------------
  No active global arrays



                         GA Statistics for process    0
                         ------------------------------

       create   destroy   get      put      acc     scatter   gather  read&inc
calls: 9523     9523     1.01e+07 4.03e+06 3.23e+06 5640        0      307     
number of processes/call 1.32e+00 1.75e+00 1.93e+00 0.00e+00 0.00e+00
bytes total:             9.17e+10 1.09e+10 1.05e+11 6.26e+04 0.00e+00 2.46e+03
bytes remote:            6.84e+10 1.10e+09 1.00e+11 0.00e+00 0.00e+00 0.00e+00
Max memory consumed for GA by this process: 205086464 bytes
 
MA_summarize_allocated_blocks: starting scan ...
MA_summarize_allocated_blocks: scan completed: 0 heap blocks, 0 stack blocks
MA usage statistics:

	allocation statistics:
					      heap	     stack
					      ----	     -----
	current number of blocks	         0	         0
	maximum number of blocks	        20	        52
	current total bytes		         0	         0
	maximum total bytes		   1166016	  68276392
	maximum total K-bytes		      1167	     68277
	maximum total M-bytes		         2	        69
 
 
                                     CITATION
                                     --------
                Please cite the following reference when publishing
                           results obtained with NWChem:
 
                 M. Valiev, E.J. Bylaska, N. Govind, K. Kowalski,
              T.P. Straatsma, H.J.J. van Dam, D. Wang, J. Nieplocha,
                        E. Apra, T.L. Windus, W.A. de Jong
                 "NWChem: a comprehensive and scalable open-source
                  solution for large scale molecular simulations"
                      Comput. Phys. Commun. 181, 1477 (2010)
                           doi:10.1016/j.cpc.2010.04.018
 
                                      AUTHORS
                                      -------
          E. Apra, E. J. Bylaska, W. A. de Jong, N. Govind, K. Kowalski,
       T. P. Straatsma, M. Valiev, H. J. J. van Dam, D. Wang, T. L. Windus,
        J. Hammond, J. Autschbach, K. Bhaskaran-Nair, J. Brabec, K. Lopata,
    S. A. Fischer, S. Krishnamoorthy, M. Jacquelin, W. Ma, M. Klemm, O. Villa,
      Y. Chen, V. Anisimov, F. Aquino, S. Hirata, M. T. Hackler, V. Konjkov,
            D. Mejia-Rodriguez, T. Risthaus, M. Malagoli, A. Marenich,
   A. Otero-de-la-Roza, J. Mullin, P. Nichols, R. Peverati, J. Pittner, Y. Zhao,
        P.-D. Fan, A. Fonari, M. J. Williamson, R. J. Harrison, J. R. Rehr,
      M. Dupuis, D. Silverstein, D. M. A. Smith, J. Nieplocha, V. Tipparaju,
    M. Krishnan, B. E. Van Kuiken, A. Vazquez-Mayagoitia, L. Jensen, M. Swart,
      Q. Wu, T. Van Voorhis, A. A. Auer, M. Nooijen, L. D. Crosby, E. Brown,
      G. Cisneros, G. I. Fann, H. Fruchtl, J. Garza, K. Hirao, R. A. Kendall,
      J. A. Nichols, K. Tsemekhman, K. Wolinski, J. Anchell, D. E. Bernholdt,
      P. Borowski, T. Clark, D. Clerc, H. Dachsel, M. J. O. Deegan, K. Dyall,
    D. Elwood, E. Glendening, M. Gutowski, A. C. Hess, J. Jaffe, B. G. Johnson,
     J. Ju, R. Kobayashi, R. Kutteh, Z. Lin, R. Littlefield, X. Long, B. Meng,
      T. Nakajima, S. Niu, L. Pollack, M. Rosing, K. Glaesemann, G. Sandrone,
      M. Stave, H. Taylor, G. Thomas, J. H. van Lenthe, A. T. Wong, Z. Zhang.

 Total times  cpu:     3623.3s     wall:     3734.4s
