 argument  1 = /storage/home/j/jbb5516/normalModes/mode1016.13-m.nw
 


============================== echo of input deck ==============================
echo
start

title "None"

geometry
C    -0.08742354    1.38753199    0.00000005
C    -1.26639436    0.69033438   -0.00000002
C    -1.16616706   -0.70413933   -0.00000002
C     0.08280907   -1.31429028    0.00000004
C     1.24532442   -0.55219924   -0.00000001
C     1.16973195    0.84382596    0.00000005
H    -2.23141865    1.17894616   -0.00000010
H    -2.06567715   -1.30621035   -0.00000009
H     0.15080973   -2.39354587    0.00000000
H     2.21329024   -1.03660612   -0.00000013
H     2.06579753    1.44969712   -0.00000010
symmetry c1
end

basis spherical
 * library "aug-cc-pvtz"
end

dft
 direct
 mult 2
 iterations 500
 xc b3lyp
end

tddft
 nroots 40
 notriplet
 algorithm 1
end
task tddft energy
================================================================================


                                         
                                         
 
 
              Northwest Computational Chemistry Package (NWChem) 6.8
              ------------------------------------------------------
 
 
                    Environmental Molecular Sciences Laboratory
                       Pacific Northwest National Laboratory
                                Richland, WA 99352
 
                              Copyright (c) 1994-2017
                       Pacific Northwest National Laboratory
                            Battelle Memorial Institute
 
             NWChem is an open-source computational chemistry package
                        distributed under the terms of the
                      Educational Community License (ECL) 2.0
             A copy of the license is included with this distribution
                              in the LICENSE.TXT file
 
                                  ACKNOWLEDGMENT
                                  --------------

            This software and its documentation were developed at the
            EMSL at Pacific Northwest National Laboratory, a multiprogram
            national laboratory, operated for the U.S. Department of Energy
            by Battelle under Contract Number DE-AC05-76RL01830. Support
            for this work was provided by the Department of Energy Office
            of Biological and Environmental Research, Office of Basic
            Energy Sciences, and the Office of Advanced Scientific Computing.


           Job information
           ---------------

    hostname        = comp-sc-0035.acib.production.int.aci.ics.psu.edu
    program         = /gpfs/group/lxj18/default/jeffprograms/nwchem-6.8.1/bin/LINUX64/nwchem
    date            = Sun Sep 20 13:54:42 2020

    compiled        = Wed_Oct_03_14:08:39_2018
    source          = /gpfs/group/lxj18/default/jeffprograms/nwchem-6.8.1
    nwchem branch   = 6.8.1
    nwchem revision = v6.8-143-gdb0d964
    ga revision     = 5.6.5
    use scalapack   = F
    input           = /storage/home/j/jbb5516/normalModes/mode1016.13-m.nw
    prefix          = mode1016.13-m.
    data base       = ./mode1016.13-m.db
    status          = startup
    nproc           =       20
    time left       =     -1s



           Memory information
           ------------------

    heap     =   13107196 doubles =    100.0 Mbytes
    stack    =   13107201 doubles =    100.0 Mbytes
    global   =   26214400 doubles =    200.0 Mbytes (distinct from heap & stack)
    total    =   52428797 doubles =    400.0 Mbytes
    verify   = yes
    hardfail = no 


           Directory information
           ---------------------
 
  0 permanent = .
  0 scratch   = .
 
 
 
 
                                NWChem Input Module
                                -------------------
 
 
                                       None
                                       ----

 Scaling coordinates for geometry "geometry" by  1.889725989
 (inverse scale =  0.529177249)

 Turning off AUTOSYM since
 SYMMETRY directive was detected!
 

          ------
          auto-z
          ------
 
 
                             Geometry "geometry" -> ""
                             -------------------------
 
 Output coordinates in angstroms (scale by  1.889725989 to convert to a.u.)
 
  No.       Tag          Charge          X              Y              Z
 ---- ---------------- ---------- -------------- -------------- --------------
    1 C                    6.0000    -0.08742560     1.38756463     0.00000005
    2 C                    6.0000    -1.26639642     0.69036702    -0.00000002
    3 C                    6.0000    -1.16616912    -0.70410669    -0.00000002
    4 C                    6.0000     0.08280701    -1.31425764     0.00000004
    5 C                    6.0000     1.24532236    -0.55216660    -0.00000001
    6 C                    6.0000     1.16972989     0.84385860     0.00000005
    7 H                    1.0000    -2.23142071     1.17897880    -0.00000010
    8 H                    1.0000    -2.06567921    -1.30617771    -0.00000009
    9 H                    1.0000     0.15080767    -2.39351323    -0.00000000
   10 H                    1.0000     2.21328818    -1.03657348    -0.00000013
   11 H                    1.0000     2.06579547     1.44972976    -0.00000010
 
      Atomic Mass 
      ----------- 
 
      C                 12.000000
      H                  1.007825
 

 Effective nuclear repulsion energy (a.u.)     195.2205775426

            Nuclear Dipole moment (a.u.) 
            ----------------------------
        X                 Y               Z
 ---------------- ---------------- ----------------
     0.0000000000     0.0000000000     0.0000000000
 


                                Z-matrix (autoz)
                                -------- 

 Units are Angstrom for bonds and degrees for angles
 
      Type          Name      I     J     K     L     M      Value
      ----------- --------  ----- ----- ----- ----- ----- ----------
    1 Stretch                  1     2                       1.36969
    2 Stretch                  1     6                       1.36969
    3 Stretch                  2     3                       1.39807
    4 Stretch                  2     7                       1.08167
    5 Stretch                  3     4                       1.39005
    6 Stretch                  3     8                       1.08241
    7 Stretch                  4     5                       1.39004
    8 Stretch                  4     9                       1.08140
    9 Stretch                  5     6                       1.39807
   10 Stretch                  5    10                       1.08241
   11 Stretch                  6    11                       1.08167
   12 Bend                     1     2     3               116.48738
   13 Bend                     1     2     7               122.54754
   14 Bend                     1     6     5               116.48740
   15 Bend                     1     6    11               122.54761
   16 Bend                     2     1     6               126.01362
   17 Bend                     2     3     4               120.14752
   18 Bend                     2     3     8               119.68462
   19 Bend                     3     2     7               120.96508
   20 Bend                     3     4     5               120.71654
   21 Bend                     3     4     9               119.64175
   22 Bend                     4     3     8               120.16786
   23 Bend                     4     5     6               120.14754
   24 Bend                     4     5    10               120.16789
   25 Bend                     5     4     9               119.64172
   26 Bend                     5     6    11               120.96499
   27 Bend                     6     5    10               119.68457
   28 Torsion                  1     2     3     4           0.00000
   29 Torsion                  1     2     3     8        -180.00000
   30 Torsion                  1     6     5     4           0.00000
   31 Torsion                  1     6     5    10         180.00000
   32 Torsion                  2     1     6     5           0.00000
   33 Torsion                  2     1     6    11         180.00000
   34 Torsion                  2     3     4     5           0.00000
   35 Torsion                  2     3     4     9        -180.00000
   36 Torsion                  3     2     1     6           0.00000
   37 Torsion                  3     4     5     6           0.00000
   38 Torsion                  3     4     5    10        -180.00000
   39 Torsion                  4     3     2     7         180.00000
   40 Torsion                  4     5     6    11        -180.00000
   41 Torsion                  5     4     3     8         180.00000
   42 Torsion                  6     1     2     7        -180.00000
   43 Torsion                  6     5     4     9        -180.00000
   44 Torsion                  7     2     3     8           0.00000
   45 Torsion                  8     3     4     9           0.00000
   46 Torsion                  9     4     5    10           0.00000
   47 Torsion                 10     5     6    11           0.00000
 
 
            XYZ format geometry
            -------------------
    11
 geometry
 C                    -0.08742560     1.38756463     0.00000005
 C                    -1.26639642     0.69036702    -0.00000002
 C                    -1.16616912    -0.70410669    -0.00000002
 C                     0.08280701    -1.31425764     0.00000004
 C                     1.24532236    -0.55216660    -0.00000001
 C                     1.16972989     0.84385860     0.00000005
 H                    -2.23142071     1.17897880    -0.00000010
 H                    -2.06567921    -1.30617771    -0.00000009
 H                     0.15080767    -2.39351323    -0.00000000
 H                     2.21328818    -1.03657348    -0.00000013
 H                     2.06579547     1.44972976    -0.00000010
 
 ==============================================================================
                                internuclear distances
 ------------------------------------------------------------------------------
       center one      |      center two      | atomic units |  angstroms
 ------------------------------------------------------------------------------
    2 C                |   1 C                |     2.58834  |     1.36969
    3 C                |   2 C                |     2.64197  |     1.39807
    4 C                |   3 C                |     2.62680  |     1.39005
    5 C                |   4 C                |     2.62680  |     1.39004
    6 C                |   1 C                |     2.58834  |     1.36969
    6 C                |   5 C                |     2.64197  |     1.39807
    7 H                |   2 C                |     2.04406  |     1.08167
    8 H                |   3 C                |     2.04546  |     1.08241
    9 H                |   4 C                |     2.04354  |     1.08140
   10 H                |   5 C                |     2.04546  |     1.08241
   11 H                |   6 C                |     2.04406  |     1.08167
 ------------------------------------------------------------------------------
                         number of included internuclear distances:         11
 ==============================================================================



 ==============================================================================
                                 internuclear angles
 ------------------------------------------------------------------------------
        center 1       |       center 2       |       center 3       |  degrees
 ------------------------------------------------------------------------------
    2 C                |   1 C                |   6 C                |   126.01
    1 C                |   2 C                |   3 C                |   116.49
    1 C                |   2 C                |   7 H                |   122.55
    3 C                |   2 C                |   7 H                |   120.97
    2 C                |   3 C                |   4 C                |   120.15
    2 C                |   3 C                |   8 H                |   119.68
    4 C                |   3 C                |   8 H                |   120.17
    3 C                |   4 C                |   5 C                |   120.72
    3 C                |   4 C                |   9 H                |   119.64
    5 C                |   4 C                |   9 H                |   119.64
    4 C                |   5 C                |   6 C                |   120.15
    4 C                |   5 C                |  10 H                |   120.17
    6 C                |   5 C                |  10 H                |   119.68
    1 C                |   6 C                |   5 C                |   116.49
    1 C                |   6 C                |  11 H                |   122.55
    5 C                |   6 C                |  11 H                |   120.96
 ------------------------------------------------------------------------------
                            number of included internuclear angles:         16
 ==============================================================================





 Summary of "ao basis" -> "" (spherical)
 ------------------------------------------------------------------------------
       Tag                 Description            Shells   Functions and Types
 ---------------- ------------------------------  ------  ---------------------
 *                        aug-cc-pvtz                 on all atoms 


 
                                 NWChem DFT Module
                                 -----------------
 
 
                                       None
 
 
                      Basis "ao basis" -> "ao basis" (spherical)
                      -----
  C (Carbon)
  ----------
            Exponent  Coefficients 
       -------------- ---------------------------------------------------------
  1 S  8.23600000E+03  0.000531
  1 S  1.23500000E+03  0.004108
  1 S  2.80800000E+02  0.021087
  1 S  7.92700000E+01  0.081853
  1 S  2.55900000E+01  0.234817
  1 S  8.99700000E+00  0.434401
  1 S  3.31900000E+00  0.346129
  1 S  3.64300000E-01 -0.008983
 
  2 S  8.23600000E+03 -0.000113
  2 S  1.23500000E+03 -0.000878
  2 S  2.80800000E+02 -0.004540
  2 S  7.92700000E+01 -0.018133
  2 S  2.55900000E+01 -0.055760
  2 S  8.99700000E+00 -0.126895
  2 S  3.31900000E+00 -0.170352
  2 S  3.64300000E-01  0.598684
 
  3 S  9.05900000E-01  1.000000
 
  4 S  1.28500000E-01  1.000000
 
  5 S  4.40200000E-02  1.000000
 
  6 P  1.87100000E+01  0.014031
  6 P  4.13300000E+00  0.086866
  6 P  1.20000000E+00  0.290216
 
  7 P  3.82700000E-01  1.000000
 
  8 P  1.20900000E-01  1.000000
 
  9 P  3.56900000E-02  1.000000
 
 10 D  1.09700000E+00  1.000000
 
 11 D  3.18000000E-01  1.000000
 
 12 D  1.00000000E-01  1.000000
 
 13 F  7.61000000E-01  1.000000
 
 14 F  2.68000000E-01  1.000000
 
  H (Hydrogen)
  ------------
            Exponent  Coefficients 
       -------------- ---------------------------------------------------------
  1 S  3.38700000E+01  0.006068
  1 S  5.09500000E+00  0.045308
  1 S  1.15900000E+00  0.202822
 
  2 S  3.25800000E-01  1.000000
 
  3 S  1.02700000E-01  1.000000
 
  4 S  2.52600000E-02  1.000000
 
  5 P  1.40700000E+00  1.000000
 
  6 P  3.88000000E-01  1.000000
 
  7 P  1.02000000E-01  1.000000
 
  8 D  1.05700000E+00  1.000000
 
  9 D  2.47000000E-01  1.000000
 


 Summary of "ao basis" -> "ao basis" (spherical)
 ------------------------------------------------------------------------------
       Tag                 Description            Shells   Functions and Types
 ---------------- ------------------------------  ------  ---------------------
 C                        aug-cc-pvtz               14       46   5s4p3d2f
 H                        aug-cc-pvtz                9       23   4s3p2d




 Summary of "ao basis" -> "ao basis" (spherical)
 ------------------------------------------------------------------------------
       Tag                 Description            Shells   Functions and Types
 ---------------- ------------------------------  ------  ---------------------
 C                        aug-cc-pvtz               14       46   5s4p3d2f
 H                        aug-cc-pvtz                9       23   4s3p2d


  Caching 1-el integrals 
 
            General Information
            -------------------
          SCF calculation type: DFT
          Wavefunction type:  spin polarized.
          No. of atoms     :    11
          No. of electrons :    41
           Alpha electrons :    21
            Beta electrons :    20
          Charge           :     0
          Spin multiplicity:     2
          Use of symmetry is: off; symmetry adaption is: off
          Maximum number of iterations: 500
          This is a Direct SCF calculation.
          AO basis - number of functions:   391
                     number of shells:   129
          Convergence on energy requested:  1.00D-06
          Convergence on density requested:  1.00D-05
          Convergence on gradient requested:  5.00D-04
 
              XC Information
              --------------
                         B3LYP Method XC Potential
                     Hartree-Fock (Exact) Exchange  0.200          
                        Slater Exchange Functional  0.800 local    
                    Becke 1988 Exchange Functional  0.720 non-local
              Lee-Yang-Parr Correlation Functional  0.810          
                  VWN I RPA Correlation Functional  0.190 local    
 
             Grid Information
             ----------------
          Grid used for XC integration:  medium    
          Radial quadrature: Mura-Knowles        
          Angular quadrature: Lebedev. 
          Tag              B.-S. Rad. Rad. Pts. Rad. Cut. Ang. Pts.
          ---              ---------- --------- --------- ---------
          C                   0.70       49          15.0       434
          H                   0.35       45          17.0       434
          Grid pruning is: on 
          Number of quadrature shells:   519
          Spatial weights used:  Erf1
 
          Convergence Information
          -----------------------
          Convergence aids based upon iterative change in 
          total energy or number of iterations. 
          Levelshifting, if invoked, occurs when the 
          HOMO/LUMO gap drops below (HL_TOL):  1.00D-02
          DIIS, if invoked, will attempt to extrapolate 
          using up to (NFOCK): 10 stored Fock matrices.

                    Damping( 0%)  Levelshifting(0.5)       DIIS
                  --------------- ------------------- ---------------
          dE  on:    start            ASAP                start   
          dE off:    2 iters        500 iters           500 iters 

 
      Screening Tolerance Information
      -------------------------------
          Density screening/tol_rho:  1.00D-10
          AO Gaussian exp screening on grid/accAOfunc:  14
          CD Gaussian exp screening on grid/accCDfunc:  20
          XC Gaussian exp screening on grid/accXCfunc:  20
          Schwarz screening/accCoul:  1.00D-08

 
 WARNING : Found     7 linear dependencies 
 S eigenvalue threshold:     1.00000E-05
 Smallest S eigenvalue :     1.45143E-06
 Largest  S eigenvalue :     7.71067E-06
 

 !! The overlap matrix has   7 vectors deemed linearly dependent with
    eigenvalues:
 1.45D-06 2.22D-06 2.80D-06 3.52D-06 5.23D-06 5.91D-06 7.71D-06
 
 
      Superposition of Atomic Density Guess
      -------------------------------------
 
 Sum of atomic energies:        -228.52307259
 
      Non-variational initial energy
      ------------------------------

 Total energy =    -232.683158
 1-e energy   =    -691.628636
 2-e energy   =     263.724900
 HOMO         =      -0.183482
 LUMO         =      -0.022184
 
   Time after variat. SCF:     10.2
   Time prior to 1st pass:     10.2

 Grid_pts file          = ./mode1016.13-m.gridpts.00
 Record size in doubles =  12289        No. of grid_pts per rec  =   3070
 Max. records in memory =      6        Max. recs in file   = 222839074

 Grid integrated density:      40.999765638796
 Requested integration accuracy:   0.10E-05

           Memory utilization after 1st SCF pass: 
           Heap Space remaining (MW):       12.96            12961276
          Stack Space remaining (MW):       13.10            13103684

   convergence    iter        energy       DeltaE   RMS-Dens  Diis-err    time
 ---------------- ----- ----------------- --------- --------- ---------  ------
 d= 0,ls=0.0,diis     1   -231.5817820525 -4.27D+02  6.35D-02  2.09D-01    20.9
                                                     7.17D-02  1.96D-01
 d= 0,ls=0.0,diis     2   -231.6397675978 -5.80D-02  6.25D-02  1.23D-02    31.6
                                                     7.06D-02  1.26D-02
 d= 0,ls=0.0,diis     3   -231.6445796592 -4.81D-03  1.30D-03  3.50D-03    42.3
                                                     1.41D-03  3.54D-03
 d= 0,ls=0.0,diis     4   -231.6457552930 -1.18D-03  2.06D-04  1.12D-03    53.0
                                                     2.11D-04  1.07D-03
 d= 0,ls=0.0,diis     5   -231.6462755321 -5.20D-04  3.39D-05  4.72D-05    63.7
                                                     3.07D-05  5.18D-05
  Resetting Diis
 d= 0,ls=0.0,diis     6   -231.6463037581 -2.82D-05  1.11D-05  1.09D-05    74.6
                                                     1.09D-05  9.85D-06
 d= 0,ls=0.0,diis     7   -231.6463115091 -7.75D-06  8.30D-06  2.53D-06    86.4
                                                     7.15D-06  2.42D-06
 d= 0,ls=0.0,diis     8   -231.6463123914 -8.82D-07  3.22D-06  6.28D-06    98.4
                                                     2.90D-06  5.78D-06


         Total DFT energy =     -231.646312391369
      One electron energy =     -696.872073830059
           Coulomb energy =      304.419049244861
    Exchange-Corr. energy =      -34.413865348773
 Nuclear repulsion energy =      195.220577542602

 Numeric. integr. density =       40.999984602161

     Total iterative time =     88.3s


 
                    DFT Final Alpha Molecular Orbital Analysis
                    ------------------------------------------
 
 Vector    1  Occ=1.000000D+00  E=-1.020494D+01
              MO Center= -8.7D-02,  1.4D+00,  4.8D-08, r^2= 3.0D-02
   Bfn.  Coefficient  Atom+Function         Bfn.  Coefficient  Atom+Function  
  ----- ------------  ---------------      ----- ------------  ---------------
     1      0.984183   1 C  s                 3      0.058880   1 C  s         
    50     -0.038267   2 C  s               234     -0.038266   6 C  s         
   143      0.038026   4 C  s               279      0.037874   7 H  s         
   371      0.037875  11 H  s                51     -0.030753   2 C  s         
   235     -0.030754   6 C  s                47      0.025522   2 C  s         
 
 Vector    2  Occ=1.000000D+00  E=-1.019140D+01
              MO Center=  7.1D-01, -5.2D-01, -1.5D-08, r^2= 1.1D+00
   Bfn.  Coefficient  Atom+Function         Bfn.  Coefficient  Atom+Function  
  ----- ------------  ---------------      ----- ------------  ---------------
   185      0.847011   5 C  s                93      0.452804   3 C  s         
   231      0.197144   6 C  s               142     -0.096048   4 C  s         
    47      0.093889   2 C  s               139      0.057465   4 C  s         
   187      0.050755   5 C  s               325      0.048054   9 H  s         
   348      0.047594  10 H  s                50      0.033932   2 C  s         
 
 Vector    3  Occ=1.000000D+00  E=-1.019138D+01
              MO Center= -6.4D-01, -5.8D-01, -2.1D-08, r^2= 1.1D+00
   Bfn.  Coefficient  Atom+Function         Bfn.  Coefficient  Atom+Function  
  ----- ------------  ---------------      ----- ------------  ---------------
    93      0.843988   3 C  s               185     -0.447211   5 C  s         
    47      0.213999   2 C  s               231     -0.125250   6 C  s         
   234      0.062288   6 C  s               302      0.059201   8 H  s         
   235      0.054090   6 C  s               371     -0.052850  11 H  s         
    50     -0.052253   2 C  s                95      0.050404   3 C  s         
 
 Vector    4  Occ=1.000000D+00  E=-1.019010D+01
              MO Center=  8.5D-01,  7.5D-01,  3.6D-08, r^2= 8.1D-01
   Bfn.  Coefficient  Atom+Function         Bfn.  Coefficient  Atom+Function  
  ----- ------------  ---------------      ----- ------------  ---------------
   231      0.892757   6 C  s                47      0.354756   2 C  s         
   185     -0.208842   5 C  s                93     -0.070883   3 C  s         
   371      0.056465  11 H  s               233      0.052269   6 C  s         
   143      0.041862   4 C  s                 4     -0.037624   1 C  s         
   142     -0.032302   4 C  s               325     -0.032262   9 H  s         
 
 Vector    5  Occ=1.000000D+00  E=-1.019008D+01
              MO Center= -9.3D-01,  6.3D-01, -1.5D-08, r^2= 8.3D-01
   Bfn.  Coefficient  Atom+Function         Bfn.  Coefficient  Atom+Function  
  ----- ------------  ---------------      ----- ------------  ---------------
    47      0.889423   2 C  s               231     -0.346363   6 C  s         
    93     -0.219382   3 C  s               185      0.097286   5 C  s         
    49      0.051346   2 C  s               279      0.051582   7 H  s         
   189      0.047758   5 C  s               188      0.044095   5 C  s         
    97     -0.042785   3 C  s                96     -0.040640   3 C  s         
 
 Vector    6  Occ=1.000000D+00  E=-1.018396D+01
              MO Center=  8.3D-02, -1.3D+00,  3.9D-08, r^2= 3.5D-02
   Bfn.  Coefficient  Atom+Function         Bfn.  Coefficient  Atom+Function  
  ----- ------------  ---------------      ----- ------------  ---------------
   139      0.984242   4 C  s               141      0.057840   4 C  s         
    96     -0.045988   3 C  s               188     -0.045987   5 C  s         
   325      0.045937   9 H  s               143     -0.043402   4 C  s         
     4      0.040791   1 C  s                93     -0.040615   3 C  s         
   185     -0.040551   5 C  s               151      0.036071   4 C  py        
 
 Vector    7  Occ=1.000000D+00  E=-8.730903D-01
              MO Center= -6.1D-03,  9.7D-02,  4.8D-09, r^2= 2.0D+00
   Bfn.  Coefficient  Atom+Function         Bfn.  Coefficient  Atom+Function  
  ----- ------------  ---------------      ----- ------------  ---------------
     2      0.213592   1 C  s                48      0.202603   2 C  s         
   232      0.202616   6 C  s                94      0.195728   3 C  s         
   186      0.195741   5 C  s               140      0.188693   4 C  s         
    50      0.090357   2 C  s               234      0.090358   6 C  s         
    96      0.087838   3 C  s               188      0.087846   5 C  s         
 
 Vector    8  Occ=1.000000D+00  E=-7.630799D-01
              MO Center= -6.3D-03,  1.0D-01,  1.9D-09, r^2= 2.8D+00
   Bfn.  Coefficient  Atom+Function         Bfn.  Coefficient  Atom+Function  
  ----- ------------  ---------------      ----- ------------  ---------------
    48      0.251051   2 C  s               232     -0.251043   6 C  s         
    94      0.243835   3 C  s               186     -0.243831   5 C  s         
    50      0.146467   2 C  s               234     -0.146466   6 C  s         
   279     -0.129848   7 H  s               371      0.129851  11 H  s         
   150     -0.116158   4 C  px               97      0.110963   3 C  s         
 
 Vector    9  Occ=1.000000D+00  E=-7.540333D-01
              MO Center=  9.2D-03, -1.5D-01, -2.7D-08, r^2= 2.6D+00
   Bfn.  Coefficient  Atom+Function         Bfn.  Coefficient  Atom+Function  
  ----- ------------  ---------------      ----- ------------  ---------------
   140     -0.301149   4 C  s                 2      0.278516   1 C  s         
    48      0.148420   2 C  s                94     -0.148529   3 C  s         
   186     -0.148533   5 C  s               232      0.148428   6 C  s         
   142     -0.146728   4 C  s                96     -0.104603   3 C  s         
   188     -0.104605   5 C  s                 4      0.103266   1 C  s         
 
 Vector   10  Occ=1.000000D+00  E=-6.188672D-01
              MO Center= -2.4D-03,  3.7D-02, -1.0D-08, r^2= 3.6D+00
   Bfn.  Coefficient  Atom+Function         Bfn.  Coefficient  Atom+Function  
  ----- ------------  ---------------      ----- ------------  ---------------
    94     -0.208545   3 C  s               186      0.208549   5 C  s         
    48      0.199466   2 C  s               232     -0.199461   6 C  s         
    50      0.183396   2 C  s               234     -0.183388   6 C  s         
    96     -0.146583   3 C  s               188      0.146580   5 C  s         
     6     -0.127277   1 C  px              144      0.117384   4 C  px        
 
 Vector   11  Occ=1.000000D+00  E=-6.037204D-01
              MO Center=  5.2D-03, -8.3D-02, -3.2D-08, r^2= 3.5D+00
   Bfn.  Coefficient  Atom+Function         Bfn.  Coefficient  Atom+Function  
  ----- ------------  ---------------      ----- ------------  ---------------
   142      0.257612   4 C  s                 2      0.239189   1 C  s         
   140      0.218295   4 C  s                 4      0.198798   1 C  s         
    94     -0.138340   3 C  s               186     -0.138325   5 C  s         
    50     -0.122977   2 C  s               234     -0.122980   6 C  s         
    96     -0.118915   3 C  s               188     -0.118907   5 C  s         
 
 Vector   12  Occ=1.000000D+00  E=-5.280006D-01
              MO Center=  9.7D-03, -1.5D-01, -1.1D-08, r^2= 4.1D+00
   Bfn.  Coefficient  Atom+Function         Bfn.  Coefficient  Atom+Function  
  ----- ------------  ---------------      ----- ------------  ---------------
   148      0.159480   4 C  py              145      0.138983   4 C  py        
   324     -0.126645   9 H  s                55      0.105089   2 C  px        
   240     -0.104942   6 C  py              323     -0.100362   9 H  s         
   237     -0.096229   6 C  py              193     -0.094555   5 C  px        
   278     -0.094104   7 H  s               370     -0.094111  11 H  s         
 
 Vector   13  Occ=1.000000D+00  E=-4.648994D-01
              MO Center= -6.6D-03,  1.0D-01,  2.7D-10, r^2= 2.7D+00
   Bfn.  Coefficient  Atom+Function         Bfn.  Coefficient  Atom+Function  
  ----- ------------  ---------------      ----- ------------  ---------------
     9      0.188975   1 C  px                6      0.175417   1 C  px        
   147      0.172339   4 C  px              144      0.159167   4 C  px        
   239     -0.136669   6 C  px              194     -0.134911   5 C  py        
    56     -0.131792   2 C  py              191     -0.121673   5 C  py        
   236     -0.121736   6 C  px               55     -0.121052   2 C  px        
 
 Vector   14  Occ=1.000000D+00  E=-4.630365D-01
              MO Center=  9.9D-03, -1.6D-01, -4.3D-08, r^2= 4.8D+00
   Bfn.  Coefficient  Atom+Function         Bfn.  Coefficient  Atom+Function  
  ----- ------------  ---------------      ----- ------------  ---------------
     2      0.176020   1 C  s               301      0.136672   8 H  s         
   347      0.136685  10 H  s               140     -0.129728   4 C  s         
   193      0.127693   5 C  px              196      0.120440   5 C  px        
   101     -0.118628   3 C  px              190      0.118559   5 C  px        
    96      0.117510   3 C  s               104     -0.117482   3 C  px        
 
 Vector   15  Occ=1.000000D+00  E=-4.401046D-01
              MO Center= -1.3D-02,  2.1D-01, -2.6D-08, r^2= 4.0D+00
   Bfn.  Coefficient  Atom+Function         Bfn.  Coefficient  Atom+Function  
  ----- ------------  ---------------      ----- ------------  ---------------
   240      0.143763   6 C  py              102      0.138828   3 C  py        
   237      0.132764   6 C  py              278     -0.131352   7 H  s         
   370      0.131356  11 H  s                55      0.129648   2 C  px        
    99      0.130022   3 C  py               56     -0.128501   2 C  py        
   194     -0.126549   5 C  py               53     -0.119473   2 C  py        
 
 Vector   16  Occ=1.000000D+00  E=-3.989927D-01
              MO Center=  4.9D-02, -7.8D-01, -1.1D-08, r^2= 3.3D+00
   Bfn.  Coefficient  Atom+Function         Bfn.  Coefficient  Atom+Function  
  ----- ------------  ---------------      ----- ------------  ---------------
   148      0.233553   4 C  py              145      0.209253   4 C  py        
   324     -0.198650   9 H  s               151      0.173603   4 C  py        
   323     -0.154136   9 H  s                10      0.138547   1 C  py        
    13      0.120875   1 C  py              240      0.115179   6 C  py        
    56      0.109445   2 C  py                7      0.107911   1 C  py        
 
 Vector   17  Occ=1.000000D+00  E=-3.841105D-01
              MO Center= -7.4D-03,  1.2D-01, -5.6D-08, r^2= 2.7D+00
   Bfn.  Coefficient  Atom+Function         Bfn.  Coefficient  Atom+Function  
  ----- ------------  ---------------      ----- ------------  ---------------
    11      0.172820   1 C  pz               57      0.156543   2 C  pz        
   241      0.156552   6 C  pz              103      0.152142   3 C  pz        
   195      0.152151   5 C  pz              149      0.146347   4 C  pz        
     8      0.136387   1 C  pz               54      0.125874   2 C  pz        
   238      0.125881   6 C  pz              100      0.121718   3 C  pz        
 
 Vector   18  Occ=1.000000D+00  E=-3.659528D-01
              MO Center=  8.9D-03, -1.4D-01, -2.8D-08, r^2= 4.1D+00
   Bfn.  Coefficient  Atom+Function         Bfn.  Coefficient  Atom+Function  
  ----- ------------  ---------------      ----- ------------  ---------------
   147     -0.169218   4 C  px              101      0.165070   3 C  px        
   193      0.164989   5 C  px              144     -0.159928   4 C  px        
     9      0.149317   1 C  px               98      0.149441   3 C  px        
   190      0.149127   5 C  px                6      0.141583   1 C  px        
   196      0.136023   5 C  px              104      0.133900   3 C  px        
 
 Vector   19  Occ=1.000000D+00  E=-2.686367D-01
              MO Center=  9.9D-04, -1.5D-02,  7.9D-08, r^2= 3.0D+00
   Bfn.  Coefficient  Atom+Function         Bfn.  Coefficient  Atom+Function  
  ----- ------------  ---------------      ----- ------------  ---------------
    11      0.244823   1 C  pz              149     -0.239064   4 C  pz        
     8      0.192587   1 C  pz              146     -0.191076   4 C  pz        
    14      0.175929   1 C  pz              152     -0.171969   4 C  pz        
   103     -0.125988   3 C  pz              195     -0.126121   5 C  pz        
    57      0.115426   2 C  pz              241      0.115301   6 C  pz        
 
 Vector   20  Occ=1.000000D+00  E=-2.680768D-01
              MO Center= -4.1D-03,  6.4D-02,  2.8D-07, r^2= 3.1D+00
   Bfn.  Coefficient  Atom+Function         Bfn.  Coefficient  Atom+Function  
  ----- ------------  ---------------      ----- ------------  ---------------
   103      0.207030   3 C  pz              195     -0.206947   5 C  pz        
    57      0.204355   2 C  pz              241     -0.204423   6 C  pz        
   100      0.164989   3 C  pz              192     -0.164922   5 C  pz        
    54      0.163602   2 C  pz              238     -0.163656   6 C  pz        
    60      0.150887   2 C  pz              244     -0.150933   6 C  pz        
 
 Vector   21  Occ=1.000000D+00  E=-2.482744D-01
              MO Center= -8.2D-02,  1.3D+00,  8.2D-08, r^2= 2.3D+00
   Bfn.  Coefficient  Atom+Function         Bfn.  Coefficient  Atom+Function  
  ----- ------------  ---------------      ----- ------------  ---------------
    10      0.385912   1 C  py               13      0.337726   1 C  py        
     5      0.335869   1 C  s                 7      0.299304   1 C  py        
     4      0.280564   1 C  s                 2      0.138447   1 C  s         
   243     -0.136267   6 C  py               59     -0.134212   2 C  py        
   102      0.112248   3 C  py              194      0.112269   5 C  py        
 
 Vector   22  Occ=0.000000D+00  E=-2.576311D-02
              MO Center= -4.1D-03,  6.5D-02, -1.0D-06, r^2= 4.3D+00
   Bfn.  Coefficient  Atom+Function         Bfn.  Coefficient  Atom+Function  
  ----- ------------  ---------------      ----- ------------  ---------------
   109     -0.321886   3 C  pz              201      0.321904   5 C  pz        
    63      0.315658   2 C  pz              247     -0.315667   6 C  pz        
    60      0.226937   2 C  pz              244     -0.226941   6 C  pz        
   106     -0.224241   3 C  pz              198      0.224251   5 C  pz        
    57      0.218546   2 C  pz              241     -0.218548   6 C  pz        
 
 Vector   23  Occ=0.000000D+00  E=-1.834089D-02
              MO Center=  2.8D-03, -4.5D-02, -4.2D-06, r^2= 4.3D+00
   Bfn.  Coefficient  Atom+Function         Bfn.  Coefficient  Atom+Function  
  ----- ------------  ---------------      ----- ------------  ---------------
   155      0.441302   4 C  pz               17      0.375854   1 C  pz        
   152      0.273688   4 C  pz               11      0.259306   1 C  pz        
   149      0.250359   4 C  pz               14      0.241296   1 C  pz        
   109     -0.227419   3 C  pz              201     -0.227408   5 C  pz        
     8      0.200970   1 C  pz               63     -0.198982   2 C  pz        
 
 Vector   24  Occ=0.000000D+00  E=-1.012895D-02
              MO Center=  6.1D-02, -9.6D-01, -1.8D-06, r^2= 2.0D+01
   Bfn.  Coefficient  Atom+Function         Bfn.  Coefficient  Atom+Function  
  ----- ------------  ---------------      ----- ------------  ---------------
     5      1.446999   1 C  s               279     -0.977537   7 H  s         
   371     -0.977547  11 H  s               326     -0.742261   9 H  s         
   303     -0.730332   8 H  s               349     -0.730448  10 H  s         
   302     -0.649919   8 H  s               348     -0.649835  10 H  s         
   325     -0.586465   9 H  s                51      0.563934   2 C  s         
 
 Vector   25  Occ=0.000000D+00  E= 4.383866D-03
              MO Center=  1.6D-02, -2.6D-01, -7.9D-06, r^2= 2.7D+01
   Bfn.  Coefficient  Atom+Function         Bfn.  Coefficient  Atom+Function  
  ----- ------------  ---------------      ----- ------------  ---------------
    51      2.738606   2 C  s               235     -2.739507   6 C  s         
    97      2.682345   3 C  s               189     -2.682335   5 C  s         
   303      1.997611   8 H  s               349     -1.997420  10 H  s         
    15      1.870558   1 C  px              153      1.808397   4 C  px        
   280      1.541761   7 H  s               372     -1.542175  11 H  s         
 
 Vector   26  Occ=0.000000D+00  E= 8.740404D-03
              MO Center=  4.5D-03, -7.0D-02,  6.0D-05, r^2= 2.7D+01
   Bfn.  Coefficient  Atom+Function         Bfn.  Coefficient  Atom+Function  
  ----- ------------  ---------------      ----- ------------  ---------------
   143      6.274689   4 C  s                51     -4.030706   2 C  s         
   235     -4.031285   6 C  s               326      2.935512   9 H  s         
     5      2.607992   1 C  s               280     -2.391728   7 H  s         
   372     -2.392069  11 H  s               154      1.950729   4 C  py        
   246      1.936803   6 C  py               62      1.831785   2 C  py        
 
 Vector   27  Occ=0.000000D+00  E= 2.673630D-02
              MO Center= -1.5D-02,  2.4D-01, -1.5D-05, r^2= 3.1D+01
   Bfn.  Coefficient  Atom+Function         Bfn.  Coefficient  Atom+Function  
  ----- ------------  ---------------      ----- ------------  ---------------
   280      3.940780   7 H  s               372     -3.941133  11 H  s         
    51      3.696078   2 C  s               235     -3.696354   6 C  s         
   303     -3.611430   8 H  s               349      3.612344  10 H  s         
    61      2.231100   2 C  px               97     -2.220584   3 C  s         
   189      2.220388   5 C  s               199     -2.048606   5 C  px        
 
 Vector   28  Occ=0.000000D+00  E= 3.225885D-02
              MO Center=  3.9D-02, -6.2D-01, -1.1D-04, r^2= 2.9D+01
   Bfn.  Coefficient  Atom+Function         Bfn.  Coefficient  Atom+Function  
  ----- ------------  ---------------      ----- ------------  ---------------
     5      6.423957   1 C  s               326     -5.010181   9 H  s         
   303      3.732735   8 H  s               349      3.732112  10 H  s         
    97     -2.187549   3 C  s               154     -2.181590   4 C  py        
   189     -2.187917   5 C  s               199     -1.650653   5 C  px        
   245      1.638674   6 C  px               61     -1.584970   2 C  px        
 
 Vector   29  Occ=0.000000D+00  E= 4.325647D-02
              MO Center=  1.4D-02, -2.2D-01,  7.6D-06, r^2= 1.3D+01
   Bfn.  Coefficient  Atom+Function         Bfn.  Coefficient  Atom+Function  
  ----- ------------  ---------------      ----- ------------  ---------------
   155      0.597284   4 C  pz               63      0.573156   2 C  pz        
   247      0.573189   6 C  pz               17     -0.257752   1 C  pz        
    60     -0.155191   2 C  pz              244     -0.155173   6 C  pz        
   289     -0.123201   7 H  pz              381     -0.123202  11 H  pz        
   259      0.119542   6 C  d -1             77      0.109567   2 C  d  1      
 
 Vector   30  Occ=0.000000D+00  E= 5.493160D-02
              MO Center=  9.6D-03, -1.5D-01, -3.8D-05, r^2= 1.5D+01
   Bfn.  Coefficient  Atom+Function         Bfn.  Coefficient  Atom+Function  
  ----- ------------  ---------------      ----- ------------  ---------------
     5     10.639233   1 C  s               143      5.250342   4 C  s         
    51     -4.455511   2 C  s               235     -4.455746   6 C  s         
   303     -2.791611   8 H  s               349     -2.791724  10 H  s         
   326      2.043345   9 H  s               199      2.002279   5 C  px        
    97     -1.931979   3 C  s               189     -1.932157   5 C  s         
 
 Vector   31  Occ=0.000000D+00  E= 6.335491D-02
              MO Center= -4.1D-02,  6.5D-01, -1.1D-04, r^2= 2.8D+01
   Bfn.  Coefficient  Atom+Function         Bfn.  Coefficient  Atom+Function  
  ----- ------------  ---------------      ----- ------------  ---------------
     5     24.471544   1 C  s                51     -9.888061   2 C  s         
   235     -9.887944   6 C  s               143      7.646344   4 C  s         
    97     -6.527774   3 C  s               189     -6.527665   5 C  s         
   326      5.884979   9 H  s               154      4.784871   4 C  py        
   303     -4.702418   8 H  s               349     -4.702368  10 H  s         
 
 Vector   32  Occ=0.000000D+00  E= 6.573175D-02
              MO Center=  1.4D-03, -2.4D-02,  5.3D-04, r^2= 1.8D+01
   Bfn.  Coefficient  Atom+Function         Bfn.  Coefficient  Atom+Function  
  ----- ------------  ---------------      ----- ------------  ---------------
   109      0.976486   3 C  pz              201     -0.976495   5 C  pz        
    63      0.771706   2 C  pz              247     -0.771732   6 C  pz        
   169     -0.682001   4 C  d  1             31     -0.580466   1 C  d  1      
   106      0.494631   3 C  pz              198     -0.494622   5 C  pz        
    60      0.489703   2 C  pz              244     -0.489723   6 C  pz        
 
 Vector   33  Occ=0.000000D+00  E= 6.824684D-02
              MO Center= -1.2D-02,  1.9D-01, -2.8D-04, r^2= 1.8D+01
   Bfn.  Coefficient  Atom+Function         Bfn.  Coefficient  Atom+Function  
  ----- ------------  ---------------      ----- ------------  ---------------
    63      1.025406   2 C  pz              247      1.025439   6 C  pz        
   109     -0.810085   3 C  pz              201     -0.810188   5 C  pz        
   155     -0.754698   4 C  pz               14      0.632077   1 C  pz        
   152     -0.620888   4 C  pz               17      0.458120   1 C  pz        
   213     -0.450646   5 C  d -1            121     -0.406768   3 C  d -1      
 
 Vector   34  Occ=0.000000D+00  E= 7.643861D-02
              MO Center=  1.2D-02, -1.6D-01, -1.2D-04, r^2= 3.5D+01
   Bfn.  Coefficient  Atom+Function         Bfn.  Coefficient  Atom+Function  
  ----- ------------  ---------------      ----- ------------  ---------------
    51     13.884980   2 C  s               235    -13.889252   6 C  s         
    97     12.444728   3 C  s               189    -12.442603   5 C  s         
    15      7.692393   1 C  px              153      7.707237   4 C  px        
   107      4.754782   3 C  px              303      4.693014   8 H  s         
   349     -4.693320  10 H  s               199      4.455217   5 C  px        
 
 Vector   35  Occ=0.000000D+00  E= 7.788698D-02
              MO Center=  2.1D-01, -3.3D+00,  1.3D-04, r^2= 2.1D+01
   Bfn.  Coefficient  Atom+Function         Bfn.  Coefficient  Atom+Function  
  ----- ------------  ---------------      ----- ------------  ---------------
   143     18.286427   4 C  s                51    -13.470309   2 C  s         
   235    -13.472614   6 C  s               326      7.021169   9 H  s         
    62      5.643409   2 C  py              246      5.667675   6 C  py        
   200      5.390347   5 C  py              154      5.267860   4 C  py        
   108      5.031957   3 C  py              279      4.210221   7 H  s         
 
 Vector   36  Occ=0.000000D+00  E= 8.155456D-02
              MO Center= -9.0D-02,  1.4D+00,  7.7D-05, r^2= 2.8D+01
   Bfn.  Coefficient  Atom+Function         Bfn.  Coefficient  Atom+Function  
  ----- ------------  ---------------      ----- ------------  ---------------
   143     20.821816   4 C  s                51     -9.027465   2 C  s         
   235     -9.024773   6 C  s               246      5.283650   6 C  py        
    62      5.185976   2 C  py              325     -4.979729   9 H  s         
   280     -4.580109   7 H  s               372     -4.580059  11 H  s         
   200      4.506162   5 C  py              326      4.522184   9 H  s         
 
 Vector   37  Occ=0.000000D+00  E= 8.321091D-02
              MO Center=  4.5D-02, -7.2D-01, -1.1D-05, r^2= 2.2D+01
   Bfn.  Coefficient  Atom+Function         Bfn.  Coefficient  Atom+Function  
  ----- ------------  ---------------      ----- ------------  ---------------
    97      4.945441   3 C  s               189     -4.943292   5 C  s         
    51     -3.141620   2 C  s               235      3.135272   6 C  s         
   108      2.799127   3 C  py              303      2.796011   8 H  s         
   349     -2.796292  10 H  s               200     -2.683267   5 C  py        
   153      2.605900   4 C  px               96      2.066606   3 C  s         
 
 Vector   38  Occ=0.000000D+00  E= 9.542110D-02
              MO Center= -5.5D-02,  8.7D-01,  1.1D-05, r^2= 3.1D+01
   Bfn.  Coefficient  Atom+Function         Bfn.  Coefficient  Atom+Function  
  ----- ------------  ---------------      ----- ------------  ---------------
    51     17.853900   2 C  s               235    -17.850808   6 C  s         
   280      7.230909   7 H  s               372     -7.230641  11 H  s         
    97     -6.983009   3 C  s               189      6.981529   5 C  s         
   108     -6.507951   3 C  py              303     -6.220433   8 H  s         
   349      6.221825  10 H  s               200      5.961367   5 C  py        
 
 Vector   39  Occ=0.000000D+00  E= 1.018180D-01
              MO Center= -7.2D-03,  1.1D-01, -3.3D-04, r^2= 1.9D+01
   Bfn.  Coefficient  Atom+Function         Bfn.  Coefficient  Atom+Function  
  ----- ------------  ---------------      ----- ------------  ---------------
    51     13.679565   2 C  s               235    -13.680542   6 C  s         
    97     10.928187   3 C  s               189    -10.927670   5 C  s         
    15     10.006203   1 C  px              153      9.705613   4 C  px        
   246     -6.129279   6 C  py              108     -5.996715   3 C  py        
    62      5.942195   2 C  py              200      5.964866   5 C  py        
 
 Vector   40  Occ=0.000000D+00  E= 1.065020D-01
              MO Center= -8.5D-03,  1.3D-01, -5.7D-04, r^2= 2.1D+01
   Bfn.  Coefficient  Atom+Function         Bfn.  Coefficient  Atom+Function  
  ----- ------------  ---------------      ----- ------------  ---------------
   143     18.385162   4 C  s                51     -9.984194   2 C  s         
   235     -9.985917   6 C  s                 5     -9.528632   1 C  s         
   107     -8.754755   3 C  px              199      7.965132   5 C  px        
   245     -7.063224   6 C  px              200      6.791333   5 C  py        
    61      6.500907   2 C  px              108      5.737406   3 C  py        
 
 Vector   41  Occ=0.000000D+00  E= 1.082314D-01
              MO Center= -1.0D-02,  1.6D-01, -9.5D-05, r^2= 2.2D+01
   Bfn.  Coefficient  Atom+Function         Bfn.  Coefficient  Atom+Function  
  ----- ------------  ---------------      ----- ------------  ---------------
    63      3.396901   2 C  pz              247     -3.396805   6 C  pz        
   109     -3.369916   3 C  pz              201      3.370314   5 C  pz        
    60      0.699561   2 C  pz              244     -0.699526   6 C  pz        
   106     -0.640617   3 C  pz              198      0.640677   5 C  pz        
    77     -0.381449   2 C  d  1            215      0.362891   5 C  d  1      
 
 Vector   42  Occ=0.000000D+00  E= 1.090005D-01
              MO Center=  2.9D-02, -4.6D-01,  2.0D-03, r^2= 2.1D+01
   Bfn.  Coefficient  Atom+Function         Bfn.  Coefficient  Atom+Function  
  ----- ------------  ---------------      ----- ------------  ---------------
   155      5.318122   4 C  pz              109     -3.434423   3 C  pz        
   201     -3.434045   5 C  pz               17      2.539086   1 C  pz        
   152      0.983657   4 C  pz              106     -0.602531   3 C  pz        
   198     -0.602451   5 C  pz              167      0.569393   4 C  d -1      
    14      0.513501   1 C  pz               63     -0.495763   2 C  pz        
 
 Vector   43  Occ=0.000000D+00  E= 1.095843D-01
              MO Center=  2.9D-02, -4.6D-01, -9.6D-04, r^2= 2.7D+01
   Bfn.  Coefficient  Atom+Function         Bfn.  Coefficient  Atom+Function  
  ----- ------------  ---------------      ----- ------------  ---------------
   326      7.723315   9 H  s               154      7.032920   4 C  py        
   303     -6.521324   8 H  s               349     -6.520458  10 H  s         
   143     -5.374299   4 C  s               108     -4.357962   3 C  py        
    62     -4.097517   2 C  py              200     -4.097591   5 C  py        
   246     -4.088278   6 C  py                4      3.952007   1 C  s         
 
 Vector   44  Occ=0.000000D+00  E= 1.180892D-01
              MO Center= -4.1D-02,  6.5D-01, -4.3D-04, r^2= 1.5D+01
   Bfn.  Coefficient  Atom+Function         Bfn.  Coefficient  Atom+Function  
  ----- ------------  ---------------      ----- ------------  ---------------
    17      6.927161   1 C  pz               63     -6.080901   2 C  pz        
   247     -6.080997   6 C  pz              109      5.130077   3 C  pz        
   201      5.130182   5 C  pz              155     -4.910725   4 C  pz        
    14      1.242037   1 C  pz               60     -1.028417   2 C  pz        
   244     -1.028438   6 C  pz              106      0.903865   3 C  pz        
 
 Vector   45  Occ=0.000000D+00  E= 1.264485D-01
              MO Center= -1.8D-02,  2.9D-01, -2.4D-05, r^2= 2.5D+01
   Bfn.  Coefficient  Atom+Function         Bfn.  Coefficient  Atom+Function  
  ----- ------------  ---------------      ----- ------------  ---------------
    51      7.640354   2 C  s               235     -7.639478   6 C  s         
   107      7.220582   3 C  px              199      7.143886   5 C  px        
   245     -7.047430   6 C  px               61     -6.935377   2 C  px        
    15      6.457507   1 C  px               97     -6.243769   3 C  s         
   189      6.244385   5 C  s               153     -5.841654   4 C  px        
 
 Vector   46  Occ=0.000000D+00  E= 1.274978D-01
              MO Center= -1.2D-02,  1.8D-01,  1.3D-04, r^2= 2.6D+01
   Bfn.  Coefficient  Atom+Function         Bfn.  Coefficient  Atom+Function  
  ----- ------------  ---------------      ----- ------------  ---------------
   154     -8.067619   4 C  py               16      7.428071   1 C  py        
   108      6.919076   3 C  py               62     -6.584892   2 C  py        
   200      6.601683   5 C  py              246     -6.391923   6 C  py        
   326     -4.064027   9 H  s                 5      3.565804   1 C  s         
   303      3.173698   8 H  s               349      3.172751  10 H  s         
 
 Vector   47  Occ=0.000000D+00  E= 1.612867D-01
              MO Center= -8.5D-03,  1.3D-01,  8.6D-05, r^2= 1.7D+01
   Bfn.  Coefficient  Atom+Function         Bfn.  Coefficient  Atom+Function  
  ----- ------------  ---------------      ----- ------------  ---------------
    17      8.174514   1 C  pz               63     -7.992159   2 C  pz        
   247     -7.992082   6 C  pz              155     -7.855197   4 C  pz        
   109      7.765445   3 C  pz              201      7.765364   5 C  pz        
    60     -1.191853   2 C  pz              106      1.190353   3 C  pz        
   198      1.190335   5 C  pz              244     -1.191840   6 C  pz        
 
 Vector   48  Occ=0.000000D+00  E= 1.660563D-01
              MO Center= -8.9D-02,  1.4D+00,  3.2D-04, r^2= 2.2D+01
   Bfn.  Coefficient  Atom+Function         Bfn.  Coefficient  Atom+Function  
  ----- ------------  ---------------      ----- ------------  ---------------
     5     59.327922   1 C  s                51    -26.021076   2 C  s         
   143     25.971767   4 C  s               235    -26.022798   6 C  s         
    97    -14.437931   3 C  s               189    -14.437517   5 C  s         
   154      7.431824   4 C  py              245      6.824113   6 C  px        
    61     -6.407530   2 C  px              326      6.160846   9 H  s         
 
 Vector   49  Occ=0.000000D+00  E= 1.754460D-01
              MO Center=  2.5D-02, -3.9D-01, -1.7D-04, r^2= 1.1D+01
   Bfn.  Coefficient  Atom+Function         Bfn.  Coefficient  Atom+Function  
  ----- ------------  ---------------      ----- ------------  ---------------
   335      1.106367   9 H  pz              312      1.080194   8 H  pz        
   358      1.080237  10 H  pz              289      0.972602   7 H  pz        
   381      0.972637  11 H  pz               17      0.927463   1 C  pz        
    63     -0.853409   2 C  pz              247     -0.853434   6 C  pz        
   106     -0.848429   3 C  pz              198     -0.848474   5 C  pz        
 
 Vector   50  Occ=0.000000D+00  E= 1.864184D-01
              MO Center=  3.5D-02, -5.5D-01,  9.8D-05, r^2= 1.5D+01
   Bfn.  Coefficient  Atom+Function         Bfn.  Coefficient  Atom+Function  
  ----- ------------  ---------------      ----- ------------  ---------------
     5     15.556284   1 C  s                97     -7.289316   3 C  s         
   189     -7.289027   5 C  s                51     -4.446038   2 C  s         
   235     -4.446106   6 C  s               325      4.457495   9 H  s         
    62     -4.066949   2 C  py              154      3.985407   4 C  py        
   246     -3.844726   6 C  py              302      3.270479   8 H  s         
 
 Vector   51  Occ=0.000000D+00  E= 1.981125D-01
              MO Center= -2.9D-02,  4.7D-01,  3.7D-04, r^2= 2.3D+01
   Bfn.  Coefficient  Atom+Function         Bfn.  Coefficient  Atom+Function  
  ----- ------------  ---------------      ----- ------------  ---------------
    51     44.723711   2 C  s               235    -44.760828   6 C  s         
    97     25.212559   3 C  s               189    -25.202164   5 C  s         
    15     18.547779   1 C  px              153     17.069374   4 C  px        
   302    -14.037260   8 H  s               348     14.034019  10 H  s         
   200      9.212983   5 C  py              108     -8.484209   3 C  py        
 
 Vector   52  Occ=0.000000D+00  E= 1.984944D-01
              MO Center=  4.6D-02, -7.4D-01, -5.1D-04, r^2= 2.3D+01
   Bfn.  Coefficient  Atom+Function         Bfn.  Coefficient  Atom+Function  
  ----- ------------  ---------------      ----- ------------  ---------------
   143     61.517744   4 C  s                51    -34.718913   2 C  s         
   235    -34.671946   6 C  s               325    -16.892430   9 H  s         
    62     14.726136   2 C  py              246     14.461948   6 C  py        
   200     13.782899   5 C  py              108     12.583005   3 C  py        
     5    -11.450509   1 C  s               279     11.212761   7 H  s         
 
 Vector   53  Occ=0.000000D+00  E= 2.156544D-01
              MO Center=  9.1D-02, -1.4D+00, -3.8D-05, r^2= 1.5D+01
   Bfn.  Coefficient  Atom+Function         Bfn.  Coefficient  Atom+Function  
  ----- ------------  ---------------      ----- ------------  ---------------
    97     13.745628   3 C  s               189    -13.745698   5 C  s         
    96      6.535143   3 C  s               188     -6.535563   5 C  s         
   153      6.116450   4 C  px              279     -5.089923   7 H  s         
   371      5.090623  11 H  s               303      4.760806   8 H  s         
   349     -4.761076  10 H  s               246     -4.385746   6 C  py        
 
 Vector   54  Occ=0.000000D+00  E= 2.184287D-01
              MO Center=  1.7D-02, -2.7D-01, -1.8D-04, r^2= 1.5D+01
   Bfn.  Coefficient  Atom+Function         Bfn.  Coefficient  Atom+Function  
  ----- ------------  ---------------      ----- ------------  ---------------
   143     25.817774   4 C  s                51    -17.837080   2 C  s         
   235    -17.834199   6 C  s                 5     16.035375   1 C  s         
    16     -6.457699   1 C  py              325     -6.045590   9 H  s         
    62      4.819900   2 C  py              246      4.701578   6 C  py        
   279      3.739387   7 H  s               371      3.738658  11 H  s         
 
 Vector   55  Occ=0.000000D+00  E= 2.191821D-01
              MO Center=  2.9D-03, -4.6D-02,  1.1D-03, r^2= 1.5D+01
   Bfn.  Coefficient  Atom+Function         Bfn.  Coefficient  Atom+Function  
  ----- ------------  ---------------      ----- ------------  ---------------
    51     19.866790   2 C  s               235    -19.869473   6 C  s         
   108     -8.434445   3 C  py              200      8.080338   5 C  py        
    15      7.624212   1 C  px              302     -6.956285   8 H  s         
   348      6.956218  10 H  s               153      6.422585   4 C  px        
   246     -4.118826   6 C  py               62      3.977522   2 C  py        
 
 Vector   56  Occ=0.000000D+00  E= 2.301851D-01
              MO Center= -2.0D-02,  3.1D-01,  2.0D-03, r^2= 1.8D+01
   Bfn.  Coefficient  Atom+Function         Bfn.  Coefficient  Atom+Function  
  ----- ------------  ---------------      ----- ------------  ---------------
   199      4.933787   5 C  px              107      4.660947   3 C  px        
   153     -3.484435   4 C  px               50     -3.248924   2 C  s         
   234      3.249328   6 C  s               303      3.208599   8 H  s         
   349     -3.209153  10 H  s                15     -2.585651   1 C  px        
   108      2.458969   3 C  py               59      2.039006   2 C  py        
 
 Vector   57  Occ=0.000000D+00  E= 2.311836D-01
              MO Center= -9.1D-05,  1.4D-03, -3.9D-03, r^2= 1.6D+01
   Bfn.  Coefficient  Atom+Function         Bfn.  Coefficient  Atom+Function  
  ----- ------------  ---------------      ----- ------------  ---------------
   106      2.145677   3 C  pz              198     -2.145672   5 C  pz        
    60      2.050743   2 C  pz              244     -2.050774   6 C  pz        
   312     -1.818111   8 H  pz              358      1.818064  10 H  pz        
   289     -1.720843   7 H  pz              381      1.720890  11 H  pz        
   169     -1.387378   4 C  d  1             31     -1.245192   1 C  d  1      
 
 Vector   58  Occ=0.000000D+00  E= 2.356386D-01
              MO Center= -1.3D-02,  2.1D-01,  5.0D-04, r^2= 1.6D+01
   Bfn.  Coefficient  Atom+Function         Bfn.  Coefficient  Atom+Function  
  ----- ------------  ---------------      ----- ------------  ---------------
   143     14.751829   4 C  s                51    -10.325580   2 C  s         
   235    -10.346631   6 C  s               107     -8.186705   3 C  px        
   199      7.757863   5 C  px               61      5.450903   2 C  px        
   245     -5.326400   6 C  px              303     -4.434611   8 H  s         
   349     -4.431700  10 H  s                 5      3.922977   1 C  s         
 
 Vector   59  Occ=0.000000D+00  E= 2.364401D-01
              MO Center= -4.0D-03,  6.0D-02,  1.0D-03, r^2= 1.7D+01
   Bfn.  Coefficient  Atom+Function         Bfn.  Coefficient  Atom+Function  
  ----- ------------  ---------------      ----- ------------  ---------------
    97    -33.492876   3 C  s               189     33.492103   5 C  s         
    51     31.724483   2 C  s               235    -31.716889   6 C  s         
    96    -14.474298   3 C  s               188     14.476315   5 C  s         
   279     10.860421   7 H  s               371    -10.862154  11 H  s         
   302    -10.686723   8 H  s               348     10.686993  10 H  s         
 
 Vector   60  Occ=0.000000D+00  E= 2.434348D-01
              MO Center=  2.8D-03, -4.4D-02, -4.8D-04, r^2= 1.5D+01
   Bfn.  Coefficient  Atom+Function         Bfn.  Coefficient  Atom+Function  
  ----- ------------  ---------------      ----- ------------  ---------------
   152      3.423122   4 C  pz               14     -3.036118   1 C  pz        
   289      2.170720   7 H  pz              381      2.170712  11 H  pz        
   335     -2.123623   9 H  pz              261      2.005862   6 C  d  1      
    77     -1.990772   2 C  d  1             63     -1.597790   2 C  pz        
   247     -1.597850   6 C  pz              155      1.377233   4 C  pz        
 
 Vector   61  Occ=0.000000D+00  E= 2.597140D-01
              MO Center=  3.9D-02, -6.2D-01,  6.5D-05, r^2= 1.7D+01
   Bfn.  Coefficient  Atom+Function         Bfn.  Coefficient  Atom+Function  
  ----- ------------  ---------------      ----- ------------  ---------------
     5      8.950128   1 C  s               108     -6.730111   3 C  py        
   200     -6.134037   5 C  py              303     -5.236099   8 H  s         
   349     -5.236691  10 H  s               199      5.141701   5 C  px        
   197     -4.836481   5 C  py              105     -4.735457   3 C  py        
   154      4.646571   4 C  py              143     -4.558216   4 C  s         
 
 Vector   62  Occ=0.000000D+00  E= 2.621553D-01
              MO Center=  6.7D-02, -1.1D+00, -5.7D-05, r^2= 1.7D+01
   Bfn.  Coefficient  Atom+Function         Bfn.  Coefficient  Atom+Function  
  ----- ------------  ---------------      ----- ------------  ---------------
     5     18.820263   1 C  s               154     15.291944   4 C  py        
   143     15.180483   4 C  s                51    -14.563002   2 C  s         
   235    -14.562241   6 C  s               326      9.144955   9 H  s         
     4      6.040521   1 C  s               108     -4.675829   3 C  py        
    97     -4.628386   3 C  s               189     -4.629303   5 C  s         
 
 Vector   63  Occ=0.000000D+00  E= 2.677207D-01
              MO Center= -2.7D-02,  4.2D-01,  6.3D-05, r^2= 2.0D+01
   Bfn.  Coefficient  Atom+Function         Bfn.  Coefficient  Atom+Function  
  ----- ------------  ---------------      ----- ------------  ---------------
    51     20.207733   2 C  s               235    -20.208436   6 C  s         
    97    -11.970944   3 C  s               189     11.970099   5 C  s         
    61     11.047386   2 C  px              245     10.296131   6 C  px        
    96     -8.748445   3 C  s               188      8.748536   5 C  s         
   279      8.731591   7 H  s               371     -8.731181  11 H  s         
 
 Vector   64  Occ=0.000000D+00  E= 2.747684D-01
              MO Center= -1.3D-03,  2.0D-02,  6.9D-05, r^2= 1.4D+01
   Bfn.  Coefficient  Atom+Function         Bfn.  Coefficient  Atom+Function  
  ----- ------------  ---------------      ----- ------------  ---------------
   143      9.075221   4 C  s                 5      8.821411   1 C  s         
   154      5.851862   4 C  py              279     -5.692550   7 H  s         
   371     -5.692472  11 H  s               302     -4.637015   8 H  s         
   348     -4.637532  10 H  s               325     -4.338091   9 H  s         
    16     -4.043768   1 C  py              246      3.289137   6 C  py        
 
 Vector   65  Occ=0.000000D+00  E= 2.831837D-01
              MO Center= -1.2D-02,  1.9D-01, -2.2D-05, r^2= 1.6D+01
   Bfn.  Coefficient  Atom+Function         Bfn.  Coefficient  Atom+Function  
  ----- ------------  ---------------      ----- ------------  ---------------
    12      9.594117   1 C  px               97      8.872730   3 C  s         
   189     -8.872585   5 C  s               302      8.122433   8 H  s         
   348     -8.122642  10 H  s                51     -8.004190   2 C  s         
   235      8.004350   6 C  s               199      7.610548   5 C  px        
   107      7.140456   3 C  px              150      6.237735   4 C  px        
 
 Vector   66  Occ=0.000000D+00  E= 2.954775D-01
              MO Center= -2.8D-03,  4.5D-02, -1.5D-05, r^2= 1.6D+01
   Bfn.  Coefficient  Atom+Function         Bfn.  Coefficient  Atom+Function  
  ----- ------------  ---------------      ----- ------------  ---------------
    63      3.204049   2 C  pz              109     -3.192632   3 C  pz        
   201      3.192982   5 C  pz              247     -3.204224   6 C  pz        
   289     -2.276752   7 H  pz              381      2.276731  11 H  pz        
    60      2.259408   2 C  pz              244     -2.259382   6 C  pz        
   312      2.261846   8 H  pz              358     -2.261946  10 H  pz        
 
 Vector   67  Occ=0.000000D+00  E= 2.963594D-01
              MO Center= -6.0D-02,  9.6D-01,  4.1D-04, r^2= 1.4D+01
   Bfn.  Coefficient  Atom+Function         Bfn.  Coefficient  Atom+Function  
  ----- ------------  ---------------      ----- ------------  ---------------
     4     10.454015   1 C  s                59     -5.766126   2 C  py        
   243     -5.655626   6 C  py                5      5.517462   1 C  s         
   105     -5.544493   3 C  py              197     -5.156560   5 C  py        
    16      4.277244   1 C  py              279     -4.177867   7 H  s         
   371     -4.177949  11 H  s               325     -3.952667   9 H  s         
 
 Vector   68  Occ=0.000000D+00  E= 3.081145D-01
              MO Center=  1.7D-02, -2.6D-01, -4.6D-04, r^2= 1.5D+01
   Bfn.  Coefficient  Atom+Function         Bfn.  Coefficient  Atom+Function  
  ----- ------------  ---------------      ----- ------------  ---------------
   155      5.179922   4 C  pz               14      4.379669   1 C  pz        
   109     -3.738058   3 C  pz              201     -3.737917   5 C  pz        
   335     -2.709019   9 H  pz               60     -2.057673   2 C  pz        
   244     -2.057771   6 C  pz               17      1.852791   1 C  pz        
   152      1.854443   4 C  pz               29     -1.724697   1 C  d -1      
 
 Vector   69  Occ=0.000000D+00  E= 3.152334D-01
              MO Center=  3.8D-03, -6.1D-02,  1.8D-05, r^2= 9.1D+00
   Bfn.  Coefficient  Atom+Function         Bfn.  Coefficient  Atom+Function  
  ----- ------------  ---------------      ----- ------------  ---------------
   261      1.243734   6 C  d  1             77      1.123149   2 C  d  1      
   169     -1.073968   4 C  d  1             75     -1.032870   2 C  d -1      
   259      0.883698   6 C  d -1            289     -0.720962   7 H  pz        
   381      0.720948  11 H  pz               31      0.627858   1 C  d  1      
    60     -0.316165   2 C  pz              244      0.315971   6 C  pz        
 
 Vector   70  Occ=0.000000D+00  E= 3.285651D-01
              MO Center=  3.9D-02, -6.1D-01,  7.0D-05, r^2= 1.5D+01
   Bfn.  Coefficient  Atom+Function         Bfn.  Coefficient  Atom+Function  
  ----- ------------  ---------------      ----- ------------  ---------------
   142     12.144295   4 C  s                96      8.710928   3 C  s         
   188      8.710842   5 C  s               151     -6.823640   4 C  py        
   325     -5.757756   9 H  s                 4     -5.211299   1 C  s         
   334     -4.991508   9 H  py                5      4.892627   1 C  s         
   302     -4.380009   8 H  s               348     -4.380352  10 H  s         
 
 Vector   71  Occ=0.000000D+00  E= 3.348467D-01
              MO Center= -1.6D-03,  2.5D-02,  2.0D-04, r^2= 7.7D+00
   Bfn.  Coefficient  Atom+Function         Bfn.  Coefficient  Atom+Function  
  ----- ------------  ---------------      ----- ------------  ---------------
   289      2.026057   7 H  pz              381      2.025948  11 H  pz        
   335      1.840542   9 H  pz               14     -1.765920   1 C  pz        
   155     -1.713203   4 C  pz               63     -1.555750   2 C  pz        
   247     -1.555737   6 C  pz               77     -1.507500   2 C  d  1      
   261      1.407961   6 C  d  1            106     -1.276179   3 C  pz        
 
 Vector   72  Occ=0.000000D+00  E= 3.432187D-01
              MO Center=  2.4D-02, -3.7D-01, -4.0D-03, r^2= 1.2D+01
   Bfn.  Coefficient  Atom+Function         Bfn.  Coefficient  Atom+Function  
  ----- ------------  ---------------      ----- ------------  ---------------
   169      3.313533   4 C  d  1             31      2.696905   1 C  d  1      
   312     -2.464943   8 H  pz              358      2.465126  10 H  pz        
   123      2.177202   3 C  d  1            215      2.133382   5 C  d  1      
   106     -1.789363   3 C  pz              198      1.789328   5 C  pz        
   289     -1.454118   7 H  pz              381      1.454344  11 H  pz        
 
 Vector   73  Occ=0.000000D+00  E= 3.452421D-01
              MO Center= -3.5D-02,  5.5D-01, -2.3D-03, r^2= 1.2D+01
   Bfn.  Coefficient  Atom+Function         Bfn.  Coefficient  Atom+Function  
  ----- ------------  ---------------      ----- ------------  ---------------
   143     23.935004   4 C  s               325    -13.124118   9 H  s         
    51    -11.949251   2 C  s               235    -11.942415   6 C  s         
   279     11.920569   7 H  s               371     11.917309  11 H  s         
     5     -7.551414   1 C  s               197     -6.889934   5 C  py        
   105     -6.767526   3 C  py              243     -5.999027   6 C  py        
 
 Vector   74  Occ=0.000000D+00  E= 3.481536D-01
              MO Center=  3.4D-02, -5.3D-01,  3.4D-03, r^2= 1.3D+01
   Bfn.  Coefficient  Atom+Function         Bfn.  Coefficient  Atom+Function  
  ----- ------------  ---------------      ----- ------------  ---------------
   155     -3.942520   4 C  pz               17      3.733177   1 C  pz        
   109      3.530723   3 C  pz              201      3.530555   5 C  pz        
    63     -3.411465   2 C  pz              247     -3.411421   6 C  pz        
   152     -3.006480   4 C  pz              213     -2.320802   5 C  d -1      
   289      2.273135   7 H  pz              381      2.272888  11 H  pz        
 
 Vector   75  Occ=0.000000D+00  E= 3.482755D-01
              MO Center=  9.3D-03, -1.5D-01,  3.6D-03, r^2= 1.2D+01
   Bfn.  Coefficient  Atom+Function         Bfn.  Coefficient  Atom+Function  
  ----- ------------  ---------------      ----- ------------  ---------------
    51     21.263238   2 C  s               235    -21.271449   6 C  s         
   302    -12.023288   8 H  s               348     12.021633  10 H  s         
    97     11.118778   3 C  s               189    -11.117002   5 C  s         
   279     -9.846700   7 H  s               371      9.852206  11 H  s         
    12     -8.086222   1 C  px              150     -7.001068   4 C  px        
 
 Vector   76  Occ=0.000000D+00  E= 3.528458D-01
              MO Center=  3.3D-02, -5.2D-01, -1.1D-04, r^2= 1.4D+01
   Bfn.  Coefficient  Atom+Function         Bfn.  Coefficient  Atom+Function  
  ----- ------------  ---------------      ----- ------------  ---------------
    17      6.421671   1 C  pz               63     -5.890204   2 C  pz        
   247     -5.890160   6 C  pz              109      5.165007   3 C  pz        
   201      5.164983   5 C  pz              155     -4.897807   4 C  pz        
   335      3.960153   9 H  pz               14      3.803129   1 C  pz        
   167      3.079818   4 C  d -1             60     -2.676039   2 C  pz        
 
 Vector   77  Occ=0.000000D+00  E= 3.548582D-01
              MO Center= -2.0D-02,  3.2D-01, -7.9D-04, r^2= 1.5D+01
   Bfn.  Coefficient  Atom+Function         Bfn.  Coefficient  Atom+Function  
  ----- ------------  ---------------      ----- ------------  ---------------
     5     31.506531   1 C  s                51    -15.821292   2 C  s         
   143     15.862912   4 C  s               235    -15.822518   6 C  s         
   151    -11.194944   4 C  py              196     -7.763548   5 C  px        
    50      7.439936   2 C  s               234      7.439406   6 C  s         
    13      7.283698   1 C  py              104      7.318975   3 C  px        
 
 Vector   78  Occ=0.000000D+00  E= 3.599329D-01
              MO Center= -4.6D-02,  7.3D-01,  2.4D-04, r^2= 1.3D+01
   Bfn.  Coefficient  Atom+Function         Bfn.  Coefficient  Atom+Function  
  ----- ------------  ---------------      ----- ------------  ---------------
   289      3.405255   7 H  pz              381     -3.405189  11 H  pz        
    60      3.165357   2 C  pz              244     -3.165346   6 C  pz        
    77     -3.089360   2 C  d  1            121     -3.098246   3 C  d -1      
   259      3.034471   6 C  d -1            213      2.793823   5 C  d -1      
   312     -2.789064   8 H  pz              358      2.789152  10 H  pz        
 
 Vector   79  Occ=0.000000D+00  E= 3.688880D-01
              MO Center=  3.6D-02, -5.7D-01, -1.4D-04, r^2= 1.3D+01
   Bfn.  Coefficient  Atom+Function         Bfn.  Coefficient  Atom+Function  
  ----- ------------  ---------------      ----- ------------  ---------------
    96     10.812514   3 C  s               188     10.813485   5 C  s         
   104     -8.408918   3 C  px              196      8.392459   5 C  px        
     5      7.902407   1 C  s               142     -7.600180   4 C  s         
   212      5.353031   5 C  d -2            258      5.310580   6 C  d -2      
   120     -5.157924   3 C  d -2            242     -5.057978   6 C  px        
 
 Vector   80  Occ=0.000000D+00  E= 3.725022D-01
              MO Center=  1.9D-02, -3.1D-01, -2.1D-04, r^2= 1.3D+01
   Bfn.  Coefficient  Atom+Function         Bfn.  Coefficient  Atom+Function  
  ----- ------------  ---------------      ----- ------------  ---------------
    97      9.712939   3 C  s               189     -9.713629   5 C  s         
    50      9.197326   2 C  s               234     -9.197520   6 C  s         
   279     -5.393196   7 H  s               371      5.391620  11 H  s         
   357      5.264752  10 H  py              311     -5.138848   8 H  py        
    51     -5.099204   2 C  s               235      5.100590   6 C  s         
 
 Vector   81  Occ=0.000000D+00  E= 3.821194D-01
              MO Center=  3.7D-02, -5.9D-01, -6.3D-06, r^2= 1.6D+01
   Bfn.  Coefficient  Atom+Function         Bfn.  Coefficient  Atom+Function  
  ----- ------------  ---------------      ----- ------------  ---------------
   166      9.149482   4 C  d -2            333      7.160049   9 H  px        
   150     -6.748052   4 C  px              216     -6.589110   5 C  d  2      
   124      6.111765   3 C  d  2            279      5.813162   7 H  s         
   371     -5.812841  11 H  s               310      5.070974   8 H  px        
   356      5.010973  10 H  px               96     -4.755450   3 C  s         
 
 Vector   82  Occ=0.000000D+00  E= 3.932463D-01
              MO Center= -2.9D-02,  4.6D-01,  2.0D-04, r^2= 1.5D+01
   Bfn.  Coefficient  Atom+Function         Bfn.  Coefficient  Atom+Function  
  ----- ------------  ---------------      ----- ------------  ---------------
    12     12.163853   1 C  px               51    -11.026545   2 C  s         
   235     11.025170   6 C  s                78     -9.099893   2 C  d  2      
   262      8.774719   6 C  d  2             15     -6.817229   1 C  px        
   216      6.679561   5 C  d  2            124     -5.840390   3 C  d  2      
   153     -5.850870   4 C  px              379     -5.819114  11 H  px        
 
 Vector   83  Occ=0.000000D+00  E= 3.960369D-01
              MO Center= -5.2D-02,  8.3D-01,  1.6D-04, r^2= 1.2D+01
   Bfn.  Coefficient  Atom+Function         Bfn.  Coefficient  Atom+Function  
  ----- ------------  ---------------      ----- ------------  ---------------
   152     -7.576057   4 C  pz              106      7.372381   3 C  pz        
   198      7.372261   5 C  pz               60     -6.507628   2 C  pz        
   244     -6.507571   6 C  pz              167     -6.349948   4 C  d -1      
   215      5.130721   5 C  d  1            123     -4.724061   3 C  d  1      
    14      4.599692   1 C  pz              259      4.025067   6 C  d -1      
 
 Vector   84  Occ=0.000000D+00  E= 4.018312D-01
              MO Center= -3.4D-02,  5.4D-01, -6.8D-04, r^2= 1.5D+01
   Bfn.  Coefficient  Atom+Function         Bfn.  Coefficient  Atom+Function  
  ----- ------------  ---------------      ----- ------------  ---------------
     5     52.652178   1 C  s                51    -20.193084   2 C  s         
   235    -20.197168   6 C  s                97    -17.567738   3 C  s         
   189    -17.567813   5 C  s               143     12.211666   4 C  s         
   142    -10.185103   4 C  s                 4     -9.875437   1 C  s         
    50     -8.011231   2 C  s               234     -8.010542   6 C  s         
 
 Vector   85  Occ=0.000000D+00  E= 4.056638D-01
              MO Center= -3.0D-03,  4.8D-02, -7.6D-05, r^2= 1.3D+01
   Bfn.  Coefficient  Atom+Function         Bfn.  Coefficient  Atom+Function  
  ----- ------------  ---------------      ----- ------------  ---------------
     5     32.306563   1 C  s               143     17.244694   4 C  s         
    51    -12.321084   2 C  s               235    -12.321629   6 C  s         
    96      9.947560   3 C  s               188      9.947533   5 C  s         
    97     -7.024713   3 C  s               189     -7.024399   5 C  s         
   262      6.878226   6 C  d  2             78      6.657311   2 C  d  2      
 
 Vector   86  Occ=0.000000D+00  E= 4.131463D-01
[...]
     Occ.   15 beta  a   ---  Virt.   21 beta  a    0.09154 X
     Occ.   19 beta  a   ---  Virt.   24 beta  a    0.19947 X
     Occ.   20 beta  a   ---  Virt.   22 beta  a   -0.12964 X
  ----------------------------------------------------------------------------
  Root  27         a              0.252104610 a.u.                6.8601 eV 
  <S2> =   1.6615
  ----------------------------------------------------------------------------
     Transition Moments    X  0.00003   Y  0.00000   Z  0.24450
     Transition Moments   XX  0.00004  XY -0.00005  XZ -0.01065
     Transition Moments   YY  0.00013  YZ  0.17033  ZZ  0.00003
     Dipole Oscillator Strength                    0.0100469453
     Electric Quadrupole                           0.0000000025
     Magnetic Dipole                               0.0000000314
     Total Oscillator Strength                     0.0100469792
 
     Occ.   19 alpha a   ---  Virt.   26 alpha a    0.98198 X
     Occ.   19 alpha a   ---  Virt.   35 alpha a   -0.07089 X
     Occ.   19 alpha a   ---  Virt.   36 alpha a   -0.07388 X
     Occ.   20 alpha a   ---  Virt.   25 alpha a    0.11682 X
     Occ.   20 beta  a   ---  Virt.   26 beta  a    0.05044 X
  ----------------------------------------------------------------------------
  Root  28         a              0.252828530 a.u.                6.8798 eV 
  <S2> =   1.8942
  ----------------------------------------------------------------------------
     Transition Moments    X -0.00002   Y -0.00001   Z  0.00004
     Transition Moments   XX -0.00001  XY  0.00002  XZ -0.39300
     Transition Moments   YY -0.00007  YZ -0.02475  ZZ -0.00002
     Dipole Oscillator Strength                    0.0000000004
     Electric Quadrupole                           0.0000000133
     Magnetic Dipole                               0.0000000097
     Total Oscillator Strength                     0.0000000235
 
     Occ.   19 alpha a   ---  Virt.   25 alpha a    0.24330 X
     Occ.   20 alpha a   ---  Virt.   26 alpha a    0.96118 X
     Occ.   20 alpha a   ---  Virt.   35 alpha a   -0.06143 X
     Occ.   20 alpha a   ---  Virt.   36 alpha a   -0.06583 X
     Occ.   19 beta  a   ---  Virt.   26 beta  a   -0.06752 X
  ----------------------------------------------------------------------------
  Root  29         a              0.254147228 a.u.                6.9157 eV 
  <S2> =   1.6127
  ----------------------------------------------------------------------------
     Transition Moments    X  0.00005   Y -0.00002   Z  0.00000
     Transition Moments   XX -0.00003  XY  0.00005  XZ -0.49511
     Transition Moments   YY -0.00012  YZ -0.03119  ZZ -0.00003
     Dipole Oscillator Strength                    0.0000000006
     Electric Quadrupole                           0.0000000215
     Magnetic Dipole                               0.0000000111
     Total Oscillator Strength                     0.0000000332
 
     Occ.   20 alpha a   ---  Virt.   26 alpha a    0.07199 X
     Occ.   19 beta  a   ---  Virt.   26 beta  a    0.98509 X
     Occ.   19 beta  a   ---  Virt.   35 beta  a   -0.05770 X
     Occ.   19 beta  a   ---  Virt.   36 beta  a   -0.07419 X
     Occ.   20 beta  a   ---  Virt.   25 beta  a    0.09635 X
  ----------------------------------------------------------------------------
  Root  30         a              0.255038174 a.u.                6.9399 eV 
  <S2> =   0.7693
  ----------------------------------------------------------------------------
     Transition Moments    X  1.52139   Y  0.09557   Z -0.00002
     Transition Moments   XX  0.02002  XY -0.16010  XZ  0.00004
     Transition Moments   YY -0.02074  YZ -0.00002  ZZ -0.00005
     Dipole Oscillator Strength                    0.3950964564
     Electric Quadrupole                           0.0000000023
     Magnetic Dipole                               0.0000000095
     Total Oscillator Strength                     0.3950964682
 
     Occ.   19 alpha a   ---  Virt.   22 alpha a    0.38599 X
     Occ.   19 alpha a   ---  Virt.   22 alpha a   -0.05381 Y
     Occ.   20 alpha a   ---  Virt.   23 alpha a   -0.43434 X
     Occ.   20 alpha a   ---  Virt.   23 alpha a    0.05173 Y
     Occ.   20 alpha a   ---  Virt.   29 alpha a    0.14360 X
     Occ.   21 alpha a   ---  Virt.   25 alpha a   -0.07183 X
     Occ.   21 alpha a   ---  Virt.   27 alpha a    0.35129 X
     Occ.   13 beta  a   ---  Virt.   21 beta  a   -0.13115 X
     Occ.   15 beta  a   ---  Virt.   21 beta  a   -0.27610 X
     Occ.   19 beta  a   ---  Virt.   24 beta  a   -0.50675 X
     Occ.   19 beta  a   ---  Virt.   29 beta  a    0.14224 X
     Occ.   20 beta  a   ---  Virt.   22 beta  a    0.35382 X
     Occ.   20 beta  a   ---  Virt.   22 beta  a   -0.05682 Y
  ----------------------------------------------------------------------------
  Root  31         a              0.255324246 a.u.                6.9477 eV 
  <S2> =   0.7999
  ----------------------------------------------------------------------------
     Transition Moments    X  0.03949   Y -0.63437   Z -0.00000
     Transition Moments   XX -0.66130  XY  0.07744  XZ  0.00002
     Transition Moments   YY -1.88550  YZ -0.00003  ZZ -0.14835
     Dipole Oscillator Strength                    0.0687656356
     Electric Quadrupole                           0.0000000711
     Magnetic Dipole                               0.0000000000
     Total Oscillator Strength                     0.0687657068
 
     Occ.   19 alpha a   ---  Virt.   23 alpha a    0.10530 X
     Occ.   20 alpha a   ---  Virt.   22 alpha a    0.11564 X
     Occ.   21 alpha a   ---  Virt.   26 alpha a    0.18381 X
     Occ.   21 alpha a   ---  Virt.   28 alpha a   -0.91140 X
     Occ.   21 alpha a   ---  Virt.   30 alpha a   -0.12767 X
     Occ.   21 alpha a   ---  Virt.   31 alpha a   -0.16340 X
     Occ.   21 alpha a   ---  Virt.   48 alpha a    0.05645 X
     Occ.   16 beta  a   ---  Virt.   21 beta  a    0.18142 X
     Occ.   19 beta  a   ---  Virt.   22 beta  a    0.11036 X
     Occ.   20 beta  a   ---  Virt.   24 beta  a    0.09606 X
  ----------------------------------------------------------------------------
  Root  32         a              0.260576142 a.u.                7.0906 eV 
  <S2> =   0.7992
  ----------------------------------------------------------------------------
     Transition Moments    X -0.00001   Y  0.00001   Z -0.09548
     Transition Moments   XX  0.00001  XY  0.00000  XZ  0.04447
     Transition Moments   YY  0.00004  YZ -0.70561  ZZ -0.00000
     Dipole Oscillator Strength                    0.0015835740
     Electric Quadrupole                           0.0000000471
     Magnetic Dipole                               0.0000000338
     Total Oscillator Strength                     0.0015836549
 
     Occ.   21 alpha a   ---  Virt.   29 alpha a    0.97947 X
     Occ.   21 alpha a   ---  Virt.   33 alpha a    0.17973 X
  ----------------------------------------------------------------------------
  Root  33         a              0.265581307 a.u.                7.2268 eV 
  <S2> =   1.7802
  ----------------------------------------------------------------------------
     Transition Moments    X  0.00001   Y  0.00001   Z -0.00000
     Transition Moments   XX -0.00006  XY  0.00002  XZ  0.54532
     Transition Moments   YY -0.00003  YZ  0.03436  ZZ -0.00004
     Dipole Oscillator Strength                    0.0000000000
     Electric Quadrupole                           0.0000000298
     Magnetic Dipole                               0.0000000005
     Total Oscillator Strength                     0.0000000304
 
     Occ.   20 beta  a   ---  Virt.   27 beta  a    0.99110 X
     Occ.   20 beta  a   ---  Virt.   38 beta  a   -0.09643 X
  ----------------------------------------------------------------------------
  Root  34         a              0.267260034 a.u.                7.2725 eV 
  <S2> =   0.8190
  ----------------------------------------------------------------------------
     Transition Moments    X  0.07476   Y -1.18793   Z  0.00000
     Transition Moments   XX -0.02375  XY -0.04655  XZ  0.00001
     Transition Moments   YY  0.71248  YZ  0.00005  ZZ  0.03724
     Dipole Oscillator Strength                    0.2524289941
     Electric Quadrupole                           0.0000000172
     Magnetic Dipole                               0.0000000000
     Total Oscillator Strength                     0.2524290113
 
     Occ.   17 alpha a   ---  Virt.   23 alpha a   -0.08010 X
     Occ.   19 alpha a   ---  Virt.   23 alpha a    0.30327 X
     Occ.   19 alpha a   ---  Virt.   29 alpha a    0.16026 X
     Occ.   20 alpha a   ---  Virt.   22 alpha a    0.22258 X
     Occ.   21 alpha a   ---  Virt.   28 alpha a    0.29525 X
     Occ.   21 alpha a   ---  Virt.   30 alpha a   -0.45426 X
     Occ.   21 alpha a   ---  Virt.   31 alpha a    0.08443 X
     Occ.   14 beta  a   ---  Virt.   21 beta  a   -0.08659 X
     Occ.   16 beta  a   ---  Virt.   21 beta  a    0.48840 X
     Occ.   19 beta  a   ---  Virt.   22 beta  a    0.22311 X
     Occ.   20 beta  a   ---  Virt.   24 beta  a    0.30528 X
     Occ.   20 beta  a   ---  Virt.   29 beta  a    0.34036 X
  ----------------------------------------------------------------------------
  Root  35         a              0.271037931 a.u.                7.3753 eV 
  <S2> =   2.7188
  ----------------------------------------------------------------------------
     Transition Moments    X -0.00000   Y -0.00001   Z -0.00914
     Transition Moments   XX  0.00000  XY -0.00001  XZ  0.00826
     Transition Moments   YY  0.00002  YZ -0.13118  ZZ -0.00000
     Dipole Oscillator Strength                    0.0000150978
     Electric Quadrupole                           0.0000000018
     Magnetic Dipole                               0.0000000000
     Total Oscillator Strength                     0.0000150996
 
     Occ.   20 alpha a   ---  Virt.   27 alpha a    0.78160 X
     Occ.   20 alpha a   ---  Virt.   38 alpha a   -0.08653 X
     Occ.   19 beta  a   ---  Virt.   27 beta  a   -0.59733 X
     Occ.   19 beta  a   ---  Virt.   38 beta  a    0.06997 X
     Occ.   20 beta  a   ---  Virt.   28 beta  a   -0.05501 X
     Occ.   20 beta  a   ---  Virt.   30 beta  a   -0.06256 X
  ----------------------------------------------------------------------------
  Root  36         a              0.271666415 a.u.                7.3924 eV 
  <S2> =   1.0271
  ----------------------------------------------------------------------------
     Transition Moments    X  0.03545   Y -0.56333   Z  0.00000
     Transition Moments   XX  1.07232  XY  0.11569  XZ -0.00001
     Transition Moments   YY -0.75649  YZ  0.00004  ZZ  0.24227
     Dipole Oscillator Strength                    0.0577013584
     Electric Quadrupole                           0.0000000910
     Magnetic Dipole                               0.0000000000
     Total Oscillator Strength                     0.0577014494
 
     Occ.   17 alpha a   ---  Virt.   23 alpha a   -0.06348 X
     Occ.   19 alpha a   ---  Virt.   23 alpha a    0.10571 X
     Occ.   20 alpha a   ---  Virt.   22 alpha a    0.05217 X
     Occ.   21 alpha a   ---  Virt.   30 alpha a    0.79250 X
     Occ.   21 alpha a   ---  Virt.   31 alpha a   -0.20596 X
     Occ.   21 alpha a   ---  Virt.   35 alpha a    0.07661 X
     Occ.   21 alpha a   ---  Virt.   40 alpha a   -0.05632 X
     Occ.   14 beta  a   ---  Virt.   21 beta  a   -0.06795 X
     Occ.   16 beta  a   ---  Virt.   21 beta  a    0.20808 X
     Occ.   19 beta  a   ---  Virt.   22 beta  a    0.06865 X
     Occ.   20 beta  a   ---  Virt.   24 beta  a    0.11011 X
     Occ.   20 beta  a   ---  Virt.   29 beta  a    0.47461 X
  ----------------------------------------------------------------------------
  Root  37         a              0.271904265 a.u.                7.3989 eV 
  <S2> =   2.7409
  ----------------------------------------------------------------------------
     Transition Moments    X -0.04884   Y -0.00286   Z  0.00000
     Transition Moments   XX -0.00380  XY  0.02713  XZ -0.00002
     Transition Moments   YY  0.00369  YZ  0.00009  ZZ -0.00008
     Dipole Oscillator Strength                    0.0004338953
     Electric Quadrupole                           0.0000000001
     Magnetic Dipole                               0.0000000018
     Total Oscillator Strength                     0.0004338973
 
     Occ.   17 alpha a   ---  Virt.   22 alpha a   -0.59644 X
     Occ.   17 alpha a   ---  Virt.   41 alpha a    0.05242 X
     Occ.   19 alpha a   ---  Virt.   32 alpha a    0.08488 X
     Occ.   20 alpha a   ---  Virt.   29 alpha a   -0.17255 X
     Occ.   20 alpha a   ---  Virt.   44 alpha a    0.22557 X
     Occ.   20 alpha a   ---  Virt.   47 alpha a   -0.17457 X
     Occ.   17 beta  a   ---  Virt.   22 beta  a    0.64236 X
     Occ.   17 beta  a   ---  Virt.   41 beta  a   -0.05435 X
     Occ.   19 beta  a   ---  Virt.   29 beta  a    0.11299 X
     Occ.   19 beta  a   ---  Virt.   44 beta  a   -0.19894 X
     Occ.   19 beta  a   ---  Virt.   47 beta  a    0.16690 X
     Occ.   20 beta  a   ---  Virt.   31 beta  a   -0.10334 X
  ----------------------------------------------------------------------------
  Root  38         a              0.272015619 a.u.                7.4019 eV 
  <S2> =   0.8144
  ----------------------------------------------------------------------------
     Transition Moments    X  0.00001   Y -0.00002   Z  0.02509
     Transition Moments   XX  0.00004  XY  0.00006  XZ -0.05501
     Transition Moments   YY -0.00009  YZ  0.87428  ZZ  0.00002
     Dipole Oscillator Strength                    0.0001141498
     Electric Quadrupole                           0.0000000822
     Magnetic Dipole                               0.0000000038
     Total Oscillator Strength                     0.0001142358
 
     Occ.   20 alpha a   ---  Virt.   27 alpha a   -0.59374 X
     Occ.   20 alpha a   ---  Virt.   38 alpha a    0.05099 X
     Occ.   19 beta  a   ---  Virt.   27 beta  a   -0.78572 X
     Occ.   19 beta  a   ---  Virt.   38 beta  a    0.07326 X
     Occ.   20 beta  a   ---  Virt.   28 beta  a    0.12936 X
  ----------------------------------------------------------------------------
  Root  39         a              0.272447387 a.u.                7.4137 eV 
  <S2> =   1.7261
  ----------------------------------------------------------------------------
     Transition Moments    X -0.00001   Y  0.00000   Z  0.00002
     Transition Moments   XX  0.00007  XY -0.00002  XZ -0.54771
     Transition Moments   YY  0.00001  YZ -0.03424  ZZ  0.00003
     Dipole Oscillator Strength                    0.0000000001
     Electric Quadrupole                           0.0000000324
     Magnetic Dipole                               0.0000000013
     Total Oscillator Strength                     0.0000000338
 
     Occ.   19 alpha a   ---  Virt.   27 alpha a   -0.99040 X
     Occ.   19 alpha a   ---  Virt.   38 alpha a    0.09585 X
  ----------------------------------------------------------------------------
  Root  40         a              0.272699951 a.u.                7.4205 eV 
  <S2> =   1.9610
  ----------------------------------------------------------------------------
     Transition Moments    X -0.00001   Y  0.00003   Z  0.04147
     Transition Moments   XX  0.00003  XY  0.00003  XZ -0.02757
     Transition Moments   YY  0.00005  YZ  0.44015  ZZ  0.00001
     Dipole Oscillator Strength                    0.0003127164
     Electric Quadrupole                           0.0000000210
     Magnetic Dipole                               0.0000000054
     Total Oscillator Strength                     0.0003127428
 
     Occ.   19 alpha a   ---  Virt.   28 alpha a   -0.11661 X
     Occ.   20 alpha a   ---  Virt.   27 alpha a    0.13006 X
     Occ.   17 beta  a   ---  Virt.   21 beta  a   -0.05531 X
     Occ.   19 beta  a   ---  Virt.   27 beta  a    0.06467 X
     Occ.   20 beta  a   ---  Virt.   28 beta  a    0.96929 X
     Occ.   20 beta  a   ---  Virt.   30 beta  a    0.05626 X
     Occ.   20 beta  a   ---  Virt.   32 beta  a    0.07501 X
     Occ.   20 beta  a   ---  Virt.   43 beta  a    0.08097 X
 
              Target root =      1
          Target symmetry = none
      Ground state energy =   -231.646312391369
        Excitation energy =      0.106249155454
     Excited state energy =   -231.540063235915
 
  stored tddft:energy   -231.540063235915     

 Task  times  cpu:     2936.2s     wall:     3031.7s
 
 
                                NWChem Input Module
                                -------------------
 
 
 Summary of allocated global arrays
-----------------------------------
  No active global arrays



                         GA Statistics for process    0
                         ------------------------------

       create   destroy   get      put      acc     scatter   gather  read&inc
calls: 9576     9576     1.07e+07 4.31e+06 2.47e+06 5680        0      296     
number of processes/call 1.30e+00 1.71e+00 1.90e+00 0.00e+00 0.00e+00
bytes total:             9.47e+10 1.17e+10 9.76e+10 6.26e+04 0.00e+00 2.37e+03
bytes remote:            6.97e+10 1.10e+09 9.31e+10 0.00e+00 0.00e+00 0.00e+00
Max memory consumed for GA by this process: 205086464 bytes
 
MA_summarize_allocated_blocks: starting scan ...
MA_summarize_allocated_blocks: scan completed: 0 heap blocks, 0 stack blocks
MA usage statistics:

	allocation statistics:
					      heap	     stack
					      ----	     -----
	current number of blocks	         0	         0
	maximum number of blocks	        20	        52
	current total bytes		         0	         0
	maximum total bytes		   1166016	  68276392
	maximum total K-bytes		      1167	     68277
	maximum total M-bytes		         2	        69
 
 
                                     CITATION
                                     --------
                Please cite the following reference when publishing
                           results obtained with NWChem:
 
                 M. Valiev, E.J. Bylaska, N. Govind, K. Kowalski,
              T.P. Straatsma, H.J.J. van Dam, D. Wang, J. Nieplocha,
                        E. Apra, T.L. Windus, W.A. de Jong
                 "NWChem: a comprehensive and scalable open-source
                  solution for large scale molecular simulations"
                      Comput. Phys. Commun. 181, 1477 (2010)
                           doi:10.1016/j.cpc.2010.04.018
 
                                      AUTHORS
                                      -------
          E. Apra, E. J. Bylaska, W. A. de Jong, N. Govind, K. Kowalski,
       T. P. Straatsma, M. Valiev, H. J. J. van Dam, D. Wang, T. L. Windus,
        J. Hammond, J. Autschbach, K. Bhaskaran-Nair, J. Brabec, K. Lopata,
    S. A. Fischer, S. Krishnamoorthy, M. Jacquelin, W. Ma, M. Klemm, O. Villa,
      Y. Chen, V. Anisimov, F. Aquino, S. Hirata, M. T. Hackler, V. Konjkov,
            D. Mejia-Rodriguez, T. Risthaus, M. Malagoli, A. Marenich,
   A. Otero-de-la-Roza, J. Mullin, P. Nichols, R. Peverati, J. Pittner, Y. Zhao,
        P.-D. Fan, A. Fonari, M. J. Williamson, R. J. Harrison, J. R. Rehr,
      M. Dupuis, D. Silverstein, D. M. A. Smith, J. Nieplocha, V. Tipparaju,
    M. Krishnan, B. E. Van Kuiken, A. Vazquez-Mayagoitia, L. Jensen, M. Swart,
      Q. Wu, T. Van Voorhis, A. A. Auer, M. Nooijen, L. D. Crosby, E. Brown,
      G. Cisneros, G. I. Fann, H. Fruchtl, J. Garza, K. Hirao, R. A. Kendall,
      J. A. Nichols, K. Tsemekhman, K. Wolinski, J. Anchell, D. E. Bernholdt,
      P. Borowski, T. Clark, D. Clerc, H. Dachsel, M. J. O. Deegan, K. Dyall,
    D. Elwood, E. Glendening, M. Gutowski, A. C. Hess, J. Jaffe, B. G. Johnson,
     J. Ju, R. Kobayashi, R. Kutteh, Z. Lin, R. Littlefield, X. Long, B. Meng,
      T. Nakajima, S. Niu, L. Pollack, M. Rosing, K. Glaesemann, G. Sandrone,
      M. Stave, H. Taylor, G. Thomas, J. H. van Lenthe, A. T. Wong, Z. Zhang.

 Total times  cpu:     2936.2s     wall:     3032.8s
