 argument  1 = /storage/home/j/jbb5516/normalModes/mode992.29-m.nw
 


============================== echo of input deck ==============================
echo
start

title "None"

geometry
C    -0.08734154    1.38622977    0.00000005
C    -1.26805899    0.69183854   -0.00000002
C    -1.16604019   -0.70372924   -0.00000002
C     0.08301747   -1.31759993    0.00000004
C     1.24514736   -0.55180870   -0.00000001
C     1.17119486    0.84552776    0.00000005
H    -2.23228971    1.18215921   -0.00000010
H    -2.06676107   -1.30420911   -0.00000009
H     0.15102458   -2.39697204   -0.00000000
H     2.21411449   -1.03448513   -0.00000013
H     2.06625799    1.45299541   -0.00000010
symmetry c1
end

basis spherical
 * library "aug-cc-pvtz"
end

dft
 direct
 mult 2
 iterations 500
 xc b3lyp
end

tddft
 nroots 40
 notriplet
 algorithm 1
end
task tddft energy
================================================================================


                                         
                                         
 
 
              Northwest Computational Chemistry Package (NWChem) 6.8
              ------------------------------------------------------
 
 
                    Environmental Molecular Sciences Laboratory
                       Pacific Northwest National Laboratory
                                Richland, WA 99352
 
                              Copyright (c) 1994-2017
                       Pacific Northwest National Laboratory
                            Battelle Memorial Institute
 
             NWChem is an open-source computational chemistry package
                        distributed under the terms of the
                      Educational Community License (ECL) 2.0
             A copy of the license is included with this distribution
                              in the LICENSE.TXT file
 
                                  ACKNOWLEDGMENT
                                  --------------

            This software and its documentation were developed at the
            EMSL at Pacific Northwest National Laboratory, a multiprogram
            national laboratory, operated for the U.S. Department of Energy
            by Battelle under Contract Number DE-AC05-76RL01830. Support
            for this work was provided by the Department of Energy Office
            of Biological and Environmental Research, Office of Basic
            Energy Sciences, and the Office of Advanced Scientific Computing.


           Job information
           ---------------

    hostname        = comp-sc-0201.acib.production.int.aci.ics.psu.edu
    program         = /gpfs/group/lxj18/default/jeffprograms/nwchem-6.8.1/bin/LINUX64/nwchem
    date            = Sun Sep 20 21:32:40 2020

    compiled        = Wed_Oct_03_14:08:39_2018
    source          = /gpfs/group/lxj18/default/jeffprograms/nwchem-6.8.1
    nwchem branch   = 6.8.1
    nwchem revision = v6.8-143-gdb0d964
    ga revision     = 5.6.5
    use scalapack   = F
    input           = /storage/home/j/jbb5516/normalModes/mode992.29-m.nw
    prefix          = mode992.29-m.
    data base       = ./mode992.29-m.db
    status          = startup
    nproc           =       20
    time left       =     -1s



           Memory information
           ------------------

    heap     =   13107198 doubles =    100.0 Mbytes
    stack    =   13107195 doubles =    100.0 Mbytes
    global   =   26214400 doubles =    200.0 Mbytes (distinct from heap & stack)
    total    =   52428793 doubles =    400.0 Mbytes
    verify   = yes
    hardfail = no 


           Directory information
           ---------------------
 
  0 permanent = .
  0 scratch   = .
 
 
 
 
                                NWChem Input Module
                                -------------------
 
 
                                       None
                                       ----

 Scaling coordinates for geometry "geometry" by  1.889725989
 (inverse scale =  0.529177249)

 Turning off AUTOSYM since
 SYMMETRY directive was detected!
 

          ------
          auto-z
          ------
 
 
                             Geometry "geometry" -> ""
                             -------------------------
 
 Output coordinates in angstroms (scale by  1.889725989 to convert to a.u.)
 
  No.       Tag          Charge          X              Y              Z
 ---- ---------------- ---------- -------------- -------------- --------------
    1 C                    6.0000    -0.08733813     1.38617520     0.00000005
    2 C                    6.0000    -1.26805558     0.69178397    -0.00000002
    3 C                    6.0000    -1.16603678    -0.70378381    -0.00000002
    4 C                    6.0000     0.08302088    -1.31765450     0.00000004
    5 C                    6.0000     1.24515077    -0.55186327    -0.00000001
    6 C                    6.0000     1.17119827     0.84547319     0.00000005
    7 H                    1.0000    -2.23228630     1.18210464    -0.00000010
    8 H                    1.0000    -2.06675766    -1.30426368    -0.00000009
    9 H                    1.0000     0.15102799    -2.39702661    -0.00000000
   10 H                    1.0000     2.21411790    -1.03453970    -0.00000013
   11 H                    1.0000     2.06626140     1.45294084    -0.00000010
 
      Atomic Mass 
      ----------- 
 
      C                 12.000000
      H                  1.007825
 

 Effective nuclear repulsion energy (a.u.)     195.0951824532

            Nuclear Dipole moment (a.u.) 
            ----------------------------
        X                 Y               Z
 ---------------- ---------------- ----------------
     0.0000000000    -0.0000000000     0.0000000000
 


                                Z-matrix (autoz)
                                -------- 

 Units are Angstrom for bonds and degrees for angles
 
      Type          Name      I     J     K     L     M      Value
      ----------- --------  ----- ----- ----- ----- ----- ----------
    1 Stretch                  1     2                       1.36977
    2 Stretch                  1     6                       1.36977
    3 Stretch                  2     3                       1.39929
    4 Stretch                  2     7                       1.08174
    5 Stretch                  3     4                       1.39176
    6 Stretch                  3     8                       1.08253
    7 Stretch                  4     5                       1.39176
    8 Stretch                  4     9                       1.08151
    9 Stretch                  5     6                       1.39929
   10 Stretch                  5    10                       1.08253
   11 Stretch                  6    11                       1.08174
   12 Bend                     1     2     3               116.27919
   13 Bend                     1     2     7               122.58603
   14 Bend                     1     6     5               116.27919
   15 Bend                     1     6    11               122.58608
   16 Bend                     2     1     6               126.29011
   17 Bend                     2     3     4               120.35360
   18 Bend                     2     3     8               119.50904
   19 Bend                     3     2     7               121.13478
   20 Bend                     3     4     5               120.44432
   21 Bend                     3     4     9               119.77782
   22 Bend                     4     3     8               120.13737
   23 Bend                     4     5     6               120.35359
   24 Bend                     4     5    10               120.13742
   25 Bend                     5     4     9               119.77786
   26 Bend                     5     6    11               121.13474
   27 Bend                     6     5    10               119.50899
   28 Torsion                  1     2     3     4           0.00000
   29 Torsion                  1     2     3     8        -180.00000
   30 Torsion                  1     6     5     4           0.00000
   31 Torsion                  1     6     5    10         180.00000
   32 Torsion                  2     1     6     5           0.00000
   33 Torsion                  2     1     6    11         180.00000
   34 Torsion                  2     3     4     5           0.00000
   35 Torsion                  2     3     4     9        -180.00000
   36 Torsion                  3     2     1     6           0.00000
   37 Torsion                  3     4     5     6           0.00000
   38 Torsion                  3     4     5    10        -180.00000
   39 Torsion                  4     3     2     7         180.00000
   40 Torsion                  4     5     6    11        -180.00000
   41 Torsion                  5     4     3     8         180.00000
   42 Torsion                  6     1     2     7        -180.00000
   43 Torsion                  6     5     4     9        -180.00000
   44 Torsion                  7     2     3     8           0.00000
   45 Torsion                  8     3     4     9           0.00000
   46 Torsion                  9     4     5    10           0.00000
   47 Torsion                 10     5     6    11           0.00000
 
 
            XYZ format geometry
            -------------------
    11
 geometry
 C                    -0.08733813     1.38617520     0.00000005
 C                    -1.26805558     0.69178397    -0.00000002
 C                    -1.16603678    -0.70378381    -0.00000002
 C                     0.08302088    -1.31765450     0.00000004
 C                     1.24515077    -0.55186327    -0.00000001
 C                     1.17119827     0.84547319     0.00000005
 H                    -2.23228630     1.18210464    -0.00000010
 H                    -2.06675766    -1.30426368    -0.00000009
 H                     0.15102799    -2.39702661    -0.00000000
 H                     2.21411790    -1.03453970    -0.00000013
 H                     2.06626140     1.45294084    -0.00000010
 
 ==============================================================================
                                internuclear distances
 ------------------------------------------------------------------------------
       center one      |      center two      | atomic units |  angstroms
 ------------------------------------------------------------------------------
    2 C                |   1 C                |     2.58849  |     1.36977
    3 C                |   2 C                |     2.64428  |     1.39929
    4 C                |   3 C                |     2.63004  |     1.39176
    5 C                |   4 C                |     2.63004  |     1.39176
    6 C                |   1 C                |     2.58849  |     1.36977
    6 C                |   5 C                |     2.64428  |     1.39929
    7 H                |   2 C                |     2.04419  |     1.08174
    8 H                |   3 C                |     2.04569  |     1.08253
    9 H                |   4 C                |     2.04376  |     1.08151
   10 H                |   5 C                |     2.04569  |     1.08253
   11 H                |   6 C                |     2.04419  |     1.08174
 ------------------------------------------------------------------------------
                         number of included internuclear distances:         11
 ==============================================================================



 ==============================================================================
                                 internuclear angles
 ------------------------------------------------------------------------------
        center 1       |       center 2       |       center 3       |  degrees
 ------------------------------------------------------------------------------
    2 C                |   1 C                |   6 C                |   126.29
    1 C                |   2 C                |   3 C                |   116.28
    1 C                |   2 C                |   7 H                |   122.59
    3 C                |   2 C                |   7 H                |   121.13
    2 C                |   3 C                |   4 C                |   120.35
    2 C                |   3 C                |   8 H                |   119.51
    4 C                |   3 C                |   8 H                |   120.14
    3 C                |   4 C                |   5 C                |   120.44
    3 C                |   4 C                |   9 H                |   119.78
    5 C                |   4 C                |   9 H                |   119.78
    4 C                |   5 C                |   6 C                |   120.35
    4 C                |   5 C                |  10 H                |   120.14
    6 C                |   5 C                |  10 H                |   119.51
    1 C                |   6 C                |   5 C                |   116.28
    1 C                |   6 C                |  11 H                |   122.59
    5 C                |   6 C                |  11 H                |   121.13
 ------------------------------------------------------------------------------
                            number of included internuclear angles:         16
 ==============================================================================





 Summary of "ao basis" -> "" (spherical)
 ------------------------------------------------------------------------------
       Tag                 Description            Shells   Functions and Types
 ---------------- ------------------------------  ------  ---------------------
 *                        aug-cc-pvtz                 on all atoms 


 
                                 NWChem DFT Module
                                 -----------------
 
 
                                       None
 
 
                      Basis "ao basis" -> "ao basis" (spherical)
                      -----
  C (Carbon)
  ----------
            Exponent  Coefficients 
       -------------- ---------------------------------------------------------
  1 S  8.23600000E+03  0.000531
  1 S  1.23500000E+03  0.004108
  1 S  2.80800000E+02  0.021087
  1 S  7.92700000E+01  0.081853
  1 S  2.55900000E+01  0.234817
  1 S  8.99700000E+00  0.434401
  1 S  3.31900000E+00  0.346129
  1 S  3.64300000E-01 -0.008983
 
  2 S  8.23600000E+03 -0.000113
  2 S  1.23500000E+03 -0.000878
  2 S  2.80800000E+02 -0.004540
  2 S  7.92700000E+01 -0.018133
  2 S  2.55900000E+01 -0.055760
  2 S  8.99700000E+00 -0.126895
  2 S  3.31900000E+00 -0.170352
  2 S  3.64300000E-01  0.598684
 
  3 S  9.05900000E-01  1.000000
 
  4 S  1.28500000E-01  1.000000
 
  5 S  4.40200000E-02  1.000000
 
  6 P  1.87100000E+01  0.014031
  6 P  4.13300000E+00  0.086866
  6 P  1.20000000E+00  0.290216
 
  7 P  3.82700000E-01  1.000000
 
  8 P  1.20900000E-01  1.000000
 
  9 P  3.56900000E-02  1.000000
 
 10 D  1.09700000E+00  1.000000
 
 11 D  3.18000000E-01  1.000000
 
 12 D  1.00000000E-01  1.000000
 
 13 F  7.61000000E-01  1.000000
 
 14 F  2.68000000E-01  1.000000
 
  H (Hydrogen)
  ------------
            Exponent  Coefficients 
       -------------- ---------------------------------------------------------
  1 S  3.38700000E+01  0.006068
  1 S  5.09500000E+00  0.045308
  1 S  1.15900000E+00  0.202822
 
  2 S  3.25800000E-01  1.000000
 
  3 S  1.02700000E-01  1.000000
 
  4 S  2.52600000E-02  1.000000
 
  5 P  1.40700000E+00  1.000000
 
  6 P  3.88000000E-01  1.000000
 
  7 P  1.02000000E-01  1.000000
 
  8 D  1.05700000E+00  1.000000
 
  9 D  2.47000000E-01  1.000000
 


 Summary of "ao basis" -> "ao basis" (spherical)
 ------------------------------------------------------------------------------
       Tag                 Description            Shells   Functions and Types
 ---------------- ------------------------------  ------  ---------------------
 C                        aug-cc-pvtz               14       46   5s4p3d2f
 H                        aug-cc-pvtz                9       23   4s3p2d




 Summary of "ao basis" -> "ao basis" (spherical)
 ------------------------------------------------------------------------------
       Tag                 Description            Shells   Functions and Types
 ---------------- ------------------------------  ------  ---------------------
 C                        aug-cc-pvtz               14       46   5s4p3d2f
 H                        aug-cc-pvtz                9       23   4s3p2d


  Caching 1-el integrals 
 
            General Information
            -------------------
          SCF calculation type: DFT
          Wavefunction type:  spin polarized.
          No. of atoms     :    11
          No. of electrons :    41
           Alpha electrons :    21
            Beta electrons :    20
          Charge           :     0
          Spin multiplicity:     2
          Use of symmetry is: off; symmetry adaption is: off
          Maximum number of iterations: 500
          This is a Direct SCF calculation.
          AO basis - number of functions:   391
                     number of shells:   129
          Convergence on energy requested:  1.00D-06
          Convergence on density requested:  1.00D-05
          Convergence on gradient requested:  5.00D-04
 
              XC Information
              --------------
                         B3LYP Method XC Potential
                     Hartree-Fock (Exact) Exchange  0.200          
                        Slater Exchange Functional  0.800 local    
                    Becke 1988 Exchange Functional  0.720 non-local
              Lee-Yang-Parr Correlation Functional  0.810          
                  VWN I RPA Correlation Functional  0.190 local    
 
             Grid Information
             ----------------
          Grid used for XC integration:  medium    
          Radial quadrature: Mura-Knowles        
          Angular quadrature: Lebedev. 
          Tag              B.-S. Rad. Rad. Pts. Rad. Cut. Ang. Pts.
          ---              ---------- --------- --------- ---------
          C                   0.70       49          15.0       434
          H                   0.35       45          17.0       434
          Grid pruning is: on 
          Number of quadrature shells:   519
          Spatial weights used:  Erf1
 
          Convergence Information
          -----------------------
          Convergence aids based upon iterative change in 
          total energy or number of iterations. 
          Levelshifting, if invoked, occurs when the 
          HOMO/LUMO gap drops below (HL_TOL):  1.00D-02
          DIIS, if invoked, will attempt to extrapolate 
          using up to (NFOCK): 10 stored Fock matrices.

                    Damping( 0%)  Levelshifting(0.5)       DIIS
                  --------------- ------------------- ---------------
          dE  on:    start            ASAP                start   
          dE off:    2 iters        500 iters           500 iters 

 
      Screening Tolerance Information
      -------------------------------
          Density screening/tol_rho:  1.00D-10
          AO Gaussian exp screening on grid/accAOfunc:  14
          CD Gaussian exp screening on grid/accCDfunc:  20
          XC Gaussian exp screening on grid/accXCfunc:  20
          Schwarz screening/accCoul:  1.00D-08

 
 WARNING : Found     7 linear dependencies 
 S eigenvalue threshold:     1.00000E-05
 Smallest S eigenvalue :     1.46064E-06
 Largest  S eigenvalue :     7.74308E-06
 

 !! The overlap matrix has   7 vectors deemed linearly dependent with
    eigenvalues:
 1.46D-06 2.24D-06 2.83D-06 3.54D-06 5.28D-06 5.93D-06 7.74D-06
 
 
      Superposition of Atomic Density Guess
      -------------------------------------
 
 Sum of atomic energies:        -228.52307259
 
      Non-variational initial energy
      ------------------------------

 Total energy =    -232.670379
 1-e energy   =    -691.388158
 2-e energy   =     263.622597
 HOMO         =      -0.182531
 LUMO         =      -0.022265
 
   Time after variat. SCF:      9.0
   Time prior to 1st pass:      9.0

 Grid_pts file          = ./mode992.29-m.gridpts.00
 Record size in doubles =  12289        No. of grid_pts per rec  =   3070
 Max. records in memory =      6        Max. recs in file   = 236479589

 Grid integrated density:      40.999767428865
 Requested integration accuracy:   0.10E-05

           Memory utilization after 1st SCF pass: 
           Heap Space remaining (MW):       12.96            12961278
          Stack Space remaining (MW):       13.10            13103676

   convergence    iter        energy       DeltaE   RMS-Dens  Diis-err    time
 ---------------- ----- ----------------- --------- --------- ---------  ------
 d= 0,ls=0.0,diis     1   -231.5817810781 -4.27D+02  6.10D-02  2.09D-01    19.8
                                                     6.86D-02  1.96D-01
 d= 0,ls=0.0,diis     2   -231.6398829820 -5.81D-02  6.00D-02  1.21D-02    30.5
                                                     6.75D-02  1.23D-02
 d= 0,ls=0.0,diis     3   -231.6446333696 -4.75D-03  1.26D-03  3.35D-03    41.2
                                                     1.37D-03  3.44D-03
 d= 0,ls=0.0,diis     4   -231.6457657160 -1.13D-03  2.01D-04  1.12D-03    51.9
                                                     2.03D-04  1.04D-03
 d= 0,ls=0.0,diis     5   -231.6462756846 -5.10D-04  3.38D-05  4.07D-05    62.6
                                                     3.13D-05  4.83D-05
  Resetting Diis
 d= 0,ls=0.0,diis     6   -231.6463036257 -2.79D-05  1.14D-05  6.70D-06    73.4
                                                     1.07D-05  4.89D-06
 d= 0,ls=0.0,diis     7   -231.6463095193 -5.89D-06  6.18D-06  1.56D-06    84.1
                                                     5.82D-06  2.07D-06
 d= 0,ls=0.0,diis     8   -231.6463114132 -1.89D-06  2.56D-06  3.36D-06    94.9
                                                     2.21D-06  2.73D-06
 d= 0,ls=0.0,diis     9   -231.6463134381 -2.02D-06  2.98D-06  3.80D-07   105.6
                                                     2.71D-06  3.66D-07
 d= 0,ls=0.0,diis    10   -231.6463144784 -1.04D-06  2.67D-06  2.58D-07   116.3
                                                     2.86D-06  3.25D-07
 d= 0,ls=0.0,diis    11   -231.6463150525 -5.74D-07  5.30D-07  9.76D-09   127.1
                                                     4.91D-07  1.09D-08


         Total DFT energy =     -231.646315052520
      One electron energy =     -696.622403827045
           Coulomb energy =      304.290929141508
    Exchange-Corr. energy =      -34.410022820202
 Nuclear repulsion energy =      195.095182453219

 Numeric. integr. density =       40.999985306824

     Total iterative time =    118.0s


 
                    DFT Final Alpha Molecular Orbital Analysis
                    ------------------------------------------
 
 Vector    1  Occ=1.000000D+00  E=-1.020495D+01
              MO Center= -8.7D-02,  1.4D+00,  4.8D-08, r^2= 3.0D-02
   Bfn.  Coefficient  Atom+Function         Bfn.  Coefficient  Atom+Function  
  ----- ------------  ---------------      ----- ------------  ---------------
     1      0.984157   1 C  s                 3      0.058884   1 C  s         
    50     -0.038492   2 C  s               234     -0.038492   6 C  s         
   279      0.037926   7 H  s               371      0.037925  11 H  s         
   143      0.037541   4 C  s                51     -0.030502   2 C  s         
   235     -0.030501   6 C  s                47      0.025774   2 C  s         
 
 Vector    2  Occ=1.000000D+00  E=-1.019179D+01
              MO Center= -7.2D-01, -6.3D-01, -2.3D-08, r^2= 9.8D-01
   Bfn.  Coefficient  Atom+Function         Bfn.  Coefficient  Atom+Function  
  ----- ------------  ---------------      ----- ------------  ---------------
    93      0.872306   3 C  s               185      0.417890   5 C  s         
    47      0.171892   2 C  s               142     -0.093246   4 C  s         
   231      0.071374   6 C  s               139      0.056667   4 C  s         
    95      0.052147   3 C  s               325      0.048676   9 H  s         
   302      0.048420   8 H  s               234      0.035851   6 C  s         
 
 Vector    3  Occ=1.000000D+00  E=-1.019176D+01
              MO Center=  7.9D-01, -5.2D-01, -1.4D-08, r^2= 1.0D+00
   Bfn.  Coefficient  Atom+Function         Bfn.  Coefficient  Atom+Function  
  ----- ------------  ---------------      ----- ------------  ---------------
   185      0.870391   5 C  s                93     -0.413940   3 C  s         
   231      0.185420   6 C  s                47     -0.099496   2 C  s         
    50      0.062467   2 C  s               348      0.058246  10 H  s         
    51      0.052443   2 C  s               187      0.051784   5 C  s         
   234     -0.051351   6 C  s               279     -0.051172   7 H  s         
 
 Vector    4  Occ=1.000000D+00  E=-1.019027D+01
              MO Center= -1.2D+00,  6.5D-01, -2.1D-08, r^2= 3.2D-01
   Bfn.  Coefficient  Atom+Function         Bfn.  Coefficient  Atom+Function  
  ----- ------------  ---------------      ----- ------------  ---------------
    47      0.947670   2 C  s               231      0.190948   6 C  s         
    93     -0.189036   3 C  s               279      0.059164   7 H  s         
    49      0.055376   2 C  s               143      0.037139   4 C  s         
     4     -0.034563   1 C  s               189      0.033113   5 C  s         
   142     -0.031317   4 C  s                51     -0.030775   2 C  s         
 
 Vector    5  Occ=1.000000D+00  E=-1.019026D+01
              MO Center=  1.1D+00,  7.8D-01,  4.3D-08, r^2= 3.3D-01
   Bfn.  Coefficient  Atom+Function         Bfn.  Coefficient  Atom+Function  
  ----- ------------  ---------------      ----- ------------  ---------------
   231      0.946346   6 C  s               185     -0.193780   5 C  s         
    47     -0.184340   2 C  s               371      0.057383  11 H  s         
   233      0.054962   6 C  s                93      0.049513   3 C  s         
    97      0.045443   3 C  s                96      0.040787   3 C  s         
   189     -0.038879   5 C  s                12     -0.037326   1 C  px        
 
 Vector    6  Occ=1.000000D+00  E=-1.018439D+01
              MO Center=  8.3D-02, -1.3D+00,  3.9D-08, r^2= 3.5D-02
   Bfn.  Coefficient  Atom+Function         Bfn.  Coefficient  Atom+Function  
  ----- ------------  ---------------      ----- ------------  ---------------
   139      0.984235   4 C  s               141      0.057799   4 C  s         
   325      0.046666   9 H  s                96     -0.046341   3 C  s         
   188     -0.046342   5 C  s               143     -0.043904   4 C  s         
     4      0.041203   1 C  s                93     -0.040236   3 C  s         
   185     -0.040325   5 C  s               151      0.036212   4 C  py        
 
 Vector    7  Occ=1.000000D+00  E=-8.726327D-01
              MO Center= -6.4D-03,  1.0D-01,  5.1D-09, r^2= 2.0D+00
   Bfn.  Coefficient  Atom+Function         Bfn.  Coefficient  Atom+Function  
  ----- ------------  ---------------      ----- ------------  ---------------
     2      0.214493   1 C  s                48      0.202668   2 C  s         
   232      0.202650   6 C  s                94      0.195579   3 C  s         
   186      0.195562   5 C  s               140      0.187817   4 C  s         
    50      0.090590   2 C  s               234      0.090580   6 C  s         
    96      0.087458   3 C  s               188      0.087452   5 C  s         
 
 Vector    8  Occ=1.000000D+00  E=-7.628006D-01
              MO Center= -6.5D-03,  1.0D-01,  2.4D-09, r^2= 2.8D+00
   Bfn.  Coefficient  Atom+Function         Bfn.  Coefficient  Atom+Function  
  ----- ------------  ---------------      ----- ------------  ---------------
    48      0.251133   2 C  s               232     -0.251142   6 C  s         
    94      0.243552   3 C  s               186     -0.243560   5 C  s         
    50      0.146034   2 C  s               234     -0.146042   6 C  s         
   279     -0.129404   7 H  s               371      0.129407  11 H  s         
   150     -0.115307   4 C  px               97      0.110963   3 C  s         
 
 Vector    9  Occ=1.000000D+00  E=-7.537925D-01
              MO Center=  9.5D-03, -1.5D-01, -2.7D-08, r^2= 2.6D+00
   Bfn.  Coefficient  Atom+Function         Bfn.  Coefficient  Atom+Function  
  ----- ------------  ---------------      ----- ------------  ---------------
   140     -0.301295   4 C  s                 2      0.278229   1 C  s         
    94     -0.148913   3 C  s               142     -0.149162   4 C  s         
   186     -0.148905   5 C  s                48      0.147962   2 C  s         
   232      0.147953   6 C  s                96     -0.105393   3 C  s         
   188     -0.105391   5 C  s                 4      0.102750   1 C  s         
 
 Vector   10  Occ=1.000000D+00  E=-6.187457D-01
              MO Center= -2.4D-03,  3.7D-02, -1.1D-08, r^2= 3.6D+00
   Bfn.  Coefficient  Atom+Function         Bfn.  Coefficient  Atom+Function  
  ----- ------------  ---------------      ----- ------------  ---------------
    94     -0.208893   3 C  s               186      0.208887   5 C  s         
    48      0.199101   2 C  s               232     -0.199108   6 C  s         
    50      0.183417   2 C  s               234     -0.183424   6 C  s         
    96     -0.147850   3 C  s               188      0.147839   5 C  s         
     6     -0.127394   1 C  px              144      0.116932   4 C  px        
 
 Vector   11  Occ=1.000000D+00  E=-6.035124D-01
              MO Center=  5.4D-03, -8.6D-02, -3.2D-08, r^2= 3.5D+00
   Bfn.  Coefficient  Atom+Function         Bfn.  Coefficient  Atom+Function  
  ----- ------------  ---------------      ----- ------------  ---------------
   142      0.258950   4 C  s                 2      0.239166   1 C  s         
   140      0.218453   4 C  s                 4      0.198172   1 C  s         
    94     -0.138490   3 C  s               186     -0.138509   5 C  s         
    50     -0.122919   2 C  s               234     -0.122909   6 C  s         
    96     -0.118890   3 C  s               188     -0.118903   5 C  s         
 
 Vector   12  Occ=1.000000D+00  E=-5.278966D-01
              MO Center=  9.2D-03, -1.5D-01, -1.1D-08, r^2= 4.1D+00
   Bfn.  Coefficient  Atom+Function         Bfn.  Coefficient  Atom+Function  
  ----- ------------  ---------------      ----- ------------  ---------------
   148      0.158902   4 C  py              145      0.138718   4 C  py        
   324     -0.126963   9 H  s                55      0.105398   2 C  px        
   240     -0.104872   6 C  py              323     -0.100527   9 H  s         
   237     -0.096194   6 C  py              278     -0.094949   7 H  s         
   370     -0.094943  11 H  s                10     -0.093821   1 C  py        
 
 Vector   13  Occ=1.000000D+00  E=-4.645719D-01
              MO Center= -6.7D-03,  1.1D-01,  2.9D-11, r^2= 2.7D+00
   Bfn.  Coefficient  Atom+Function         Bfn.  Coefficient  Atom+Function  
  ----- ------------  ---------------      ----- ------------  ---------------
     9      0.189019   1 C  px                6      0.175563   1 C  px        
   147      0.172267   4 C  px              144      0.158943   4 C  px        
   239     -0.137366   6 C  px              194     -0.134385   5 C  py        
    56     -0.130982   2 C  py               55     -0.121941   2 C  px        
   236     -0.122369   6 C  px              191     -0.121167   5 C  py        
 
 Vector   14  Occ=1.000000D+00  E=-4.629545D-01
              MO Center=  1.0D-02, -1.6D-01, -4.3D-08, r^2= 4.8D+00
   Bfn.  Coefficient  Atom+Function         Bfn.  Coefficient  Atom+Function  
  ----- ------------  ---------------      ----- ------------  ---------------
     2      0.176786   1 C  s               301      0.136786   8 H  s         
   347      0.136763  10 H  s               140     -0.128852   4 C  s         
   193      0.128414   5 C  px              196      0.120317   5 C  px        
   101     -0.119456   3 C  px              190      0.119055   5 C  px        
   104     -0.117396   3 C  px               96      0.116730   3 C  s         
 
 Vector   15  Occ=1.000000D+00  E=-4.400817D-01
              MO Center= -1.4D-02,  2.2D-01, -2.5D-08, r^2= 4.0D+00
   Bfn.  Coefficient  Atom+Function         Bfn.  Coefficient  Atom+Function  
  ----- ------------  ---------------      ----- ------------  ---------------
   240      0.144291   6 C  py              102      0.139402   3 C  py        
   237      0.133235   6 C  py              278     -0.132103   7 H  s         
   370      0.132100  11 H  s                55      0.130132   2 C  px        
    99      0.130368   3 C  py               56     -0.128983   2 C  py        
   194     -0.127348   5 C  py               53     -0.119903   2 C  py        
 
 Vector   16  Occ=1.000000D+00  E=-3.996655D-01
              MO Center=  5.0D-02, -7.9D-01, -9.9D-09, r^2= 3.3D+00
   Bfn.  Coefficient  Atom+Function         Bfn.  Coefficient  Atom+Function  
  ----- ------------  ---------------      ----- ------------  ---------------
   148      0.233281   4 C  py              145      0.209010   4 C  py        
   324     -0.198875   9 H  s               151      0.171640   4 C  py        
   323     -0.154077   9 H  s                10      0.138232   1 C  py        
    13      0.120982   1 C  py              240      0.115432   6 C  py        
    56      0.109714   2 C  py              194     -0.108621   5 C  py        
 
 Vector   17  Occ=1.000000D+00  E=-3.838032D-01
              MO Center= -7.7D-03,  1.2D-01, -5.8D-08, r^2= 2.7D+00
   Bfn.  Coefficient  Atom+Function         Bfn.  Coefficient  Atom+Function  
  ----- ------------  ---------------      ----- ------------  ---------------
    11      0.173623   1 C  pz               57      0.156441   2 C  pz        
   241      0.156429   6 C  pz              103      0.152190   3 C  pz        
   195      0.152177   5 C  pz              149      0.145713   4 C  pz        
     8      0.136962   1 C  pz               54      0.125819   2 C  pz        
   238      0.125809   6 C  pz              100      0.121698   3 C  pz        
 
 Vector   18  Occ=1.000000D+00  E=-3.658266D-01
              MO Center=  9.9D-03, -1.6D-01, -2.8D-08, r^2= 4.1D+00
   Bfn.  Coefficient  Atom+Function         Bfn.  Coefficient  Atom+Function  
  ----- ------------  ---------------      ----- ------------  ---------------
   147     -0.169536   4 C  px              101      0.165966   3 C  px        
   193      0.166007   5 C  px              144     -0.160046   4 C  px        
    98      0.150222   3 C  px              190      0.150036   5 C  px        
     9      0.148874   1 C  px                6      0.141167   1 C  px        
   196      0.136549   5 C  px              104      0.134315   3 C  px        
 
 Vector   19  Occ=1.000000D+00  E=-2.685418D-01
              MO Center=  1.1D-03, -1.8D-02,  7.7D-08, r^2= 3.0D+00
   Bfn.  Coefficient  Atom+Function         Bfn.  Coefficient  Atom+Function  
  ----- ------------  ---------------      ----- ------------  ---------------
    11      0.244972   1 C  pz              149     -0.238823   4 C  pz        
     8      0.192664   1 C  pz              146     -0.190921   4 C  pz        
    14      0.175845   1 C  pz              152     -0.171892   4 C  pz        
   103     -0.126608   3 C  pz              195     -0.126483   5 C  pz        
    57      0.114805   2 C  pz              241      0.114918   6 C  pz        
 
 Vector   20  Occ=1.000000D+00  E=-2.678785D-01
              MO Center= -3.9D-03,  6.3D-02,  2.8D-07, r^2= 3.1D+00
   Bfn.  Coefficient  Atom+Function         Bfn.  Coefficient  Atom+Function  
  ----- ------------  ---------------      ----- ------------  ---------------
   103      0.207331   3 C  pz              195     -0.207410   5 C  pz        
    57      0.203974   2 C  pz              241     -0.203913   6 C  pz        
   100      0.165183   3 C  pz              192     -0.165246   5 C  pz        
    54      0.163342   2 C  pz              238     -0.163293   6 C  pz        
    60      0.150772   2 C  pz              244     -0.150731   6 C  pz        
 
 Vector   21  Occ=1.000000D+00  E=-2.476909D-01
              MO Center= -8.2D-02,  1.3D+00,  8.3D-08, r^2= 2.3D+00
   Bfn.  Coefficient  Atom+Function         Bfn.  Coefficient  Atom+Function  
  ----- ------------  ---------------      ----- ------------  ---------------
    10      0.386461   1 C  py               13      0.338589   1 C  py        
     5      0.335739   1 C  s                 7      0.299751   1 C  py        
     4      0.278274   1 C  s                 2      0.137244   1 C  s         
   243     -0.136718   6 C  py               59     -0.134701   2 C  py        
   102      0.112325   3 C  py              194      0.112313   5 C  py        
 
 Vector   22  Occ=0.000000D+00  E=-2.596423D-02
              MO Center= -4.3D-03,  6.8D-02, -1.1D-06, r^2= 4.3D+00
   Bfn.  Coefficient  Atom+Function         Bfn.  Coefficient  Atom+Function  
  ----- ------------  ---------------      ----- ------------  ---------------
   109     -0.320473   3 C  pz              201      0.320452   5 C  pz        
    63      0.314702   2 C  pz              247     -0.314689   6 C  pz        
    60      0.227009   2 C  pz              244     -0.227001   6 C  pz        
   106     -0.223786   3 C  pz              198      0.223772   5 C  pz        
    57      0.218624   2 C  pz              241     -0.218619   6 C  pz        
 
 Vector   23  Occ=0.000000D+00  E=-1.851529D-02
              MO Center=  3.2D-03, -5.1D-02, -4.2D-06, r^2= 4.3D+00
   Bfn.  Coefficient  Atom+Function         Bfn.  Coefficient  Atom+Function  
  ----- ------------  ---------------      ----- ------------  ---------------
   155      0.439588   4 C  pz               17      0.375000   1 C  pz        
   152      0.274583   4 C  pz               11      0.258945   1 C  pz        
   149      0.250697   4 C  pz               14      0.240110   1 C  pz        
   109     -0.226130   3 C  pz              201     -0.226141   5 C  pz        
     8      0.200646   1 C  pz               63     -0.198921   2 C  pz        
 
 Vector   24  Occ=0.000000D+00  E=-1.010710D-02
              MO Center=  6.0D-02, -9.5D-01, -2.1D-06, r^2= 2.0D+01
   Bfn.  Coefficient  Atom+Function         Bfn.  Coefficient  Atom+Function  
  ----- ------------  ---------------      ----- ------------  ---------------
     5      1.445981   1 C  s               279     -0.975408   7 H  s         
   371     -0.975406  11 H  s               326     -0.743138   9 H  s         
   303     -0.728498   8 H  s               349     -0.728360  10 H  s         
   302     -0.647660   8 H  s               348     -0.647671  10 H  s         
   325     -0.593207   9 H  s                51      0.562549   2 C  s         
 
 Vector   25  Occ=0.000000D+00  E= 4.384802D-03
              MO Center=  1.6D-02, -2.5D-01, -9.3D-06, r^2= 2.7D+01
   Bfn.  Coefficient  Atom+Function         Bfn.  Coefficient  Atom+Function  
  ----- ------------  ---------------      ----- ------------  ---------------
    51      2.745179   2 C  s               235     -2.744905   6 C  s         
    97      2.674096   3 C  s               189     -2.674101   5 C  s         
   303      1.997841   8 H  s               349     -1.997961  10 H  s         
    15      1.871086   1 C  px              153      1.808271   4 C  px        
   280      1.540856   7 H  s               372     -1.540736  11 H  s         
 
 Vector   26  Occ=0.000000D+00  E= 8.715822D-03
              MO Center=  4.8D-03, -7.8D-02,  5.5D-05, r^2= 2.7D+01
   Bfn.  Coefficient  Atom+Function         Bfn.  Coefficient  Atom+Function  
  ----- ------------  ---------------      ----- ------------  ---------------
   143      6.250755   4 C  s                51     -4.013911   2 C  s         
   235     -4.014100   6 C  s               326      2.932557   9 H  s         
     5      2.591794   1 C  s               280     -2.386889   7 H  s         
   372     -2.386894  11 H  s               154      1.946842   4 C  py        
   246      1.935823   6 C  py               62      1.831924   2 C  py        
 
 Vector   27  Occ=0.000000D+00  E= 2.671071D-02
              MO Center= -1.5D-02,  2.4D-01, -2.4D-05, r^2= 3.1D+01
   Bfn.  Coefficient  Atom+Function         Bfn.  Coefficient  Atom+Function  
  ----- ------------  ---------------      ----- ------------  ---------------
   280      3.928019   7 H  s               372     -3.928096  11 H  s         
    51      3.641020   2 C  s               235     -3.641424   6 C  s         
   303     -3.603423   8 H  s               349      3.603251  10 H  s         
    61      2.215740   2 C  px               97     -2.182118   3 C  s         
   189      2.182129   5 C  s               199     -2.041172   5 C  px        
 
 Vector   28  Occ=0.000000D+00  E= 3.221950D-02
              MO Center=  4.0D-02, -6.3D-01, -1.2D-04, r^2= 2.9D+01
   Bfn.  Coefficient  Atom+Function         Bfn.  Coefficient  Atom+Function  
  ----- ------------  ---------------      ----- ------------  ---------------
     5      6.386407   1 C  s               326     -4.995671   9 H  s         
   303      3.728296   8 H  s               349      3.728633  10 H  s         
    97     -2.178446   3 C  s               154     -2.175587   4 C  py        
   189     -2.178064   5 C  s               199     -1.651727   5 C  px        
   245      1.634058   6 C  px               61     -1.580823   2 C  px        
 
 Vector   29  Occ=0.000000D+00  E= 4.325781D-02
              MO Center=  1.4D-02, -2.2D-01,  1.0D-05, r^2= 1.3D+01
   Bfn.  Coefficient  Atom+Function         Bfn.  Coefficient  Atom+Function  
  ----- ------------  ---------------      ----- ------------  ---------------
   155      0.632101   4 C  pz               63      0.609410   2 C  pz        
   247      0.609368   6 C  pz               17     -0.292386   1 C  pz        
    60     -0.160149   2 C  pz              244     -0.160172   6 C  pz        
   289     -0.129596   7 H  pz              381     -0.129593  11 H  pz        
   259      0.122878   6 C  d -1             77      0.115621   2 C  d  1      
 
 Vector   30  Occ=0.000000D+00  E= 5.492425D-02
              MO Center=  9.1D-03, -1.4D-01, -4.2D-05, r^2= 1.5D+01
   Bfn.  Coefficient  Atom+Function         Bfn.  Coefficient  Atom+Function  
  ----- ------------  ---------------      ----- ------------  ---------------
     5     10.837061   1 C  s               143      5.338169   4 C  s         
    51     -4.549552   2 C  s               235     -4.549499   6 C  s         
   303     -2.804577   8 H  s               349     -2.804511  10 H  s         
   326      2.071553   9 H  s               199      2.011436   5 C  px        
    97     -1.981858   3 C  s               189     -1.981746   5 C  s         
 
 Vector   31  Occ=0.000000D+00  E= 6.339799D-02
              MO Center= -4.1D-02,  6.5D-01, -9.9D-05, r^2= 2.8D+01
   Bfn.  Coefficient  Atom+Function         Bfn.  Coefficient  Atom+Function  
  ----- ------------  ---------------      ----- ------------  ---------------
     5     24.377443   1 C  s                51     -9.823775   2 C  s         
   235     -9.823674   6 C  s               143      7.578599   4 C  s         
    97     -6.524059   3 C  s               189     -6.523997   5 C  s         
   326      5.856114   9 H  s               154      4.766076   4 C  py        
   303     -4.678886   8 H  s               349     -4.679041  10 H  s         
 
 Vector   32  Occ=0.000000D+00  E= 6.575059D-02
              MO Center=  1.5D-03, -2.2D-02,  5.4D-04, r^2= 1.8D+01
   Bfn.  Coefficient  Atom+Function         Bfn.  Coefficient  Atom+Function  
  ----- ------------  ---------------      ----- ------------  ---------------
   109      0.974272   3 C  pz              201     -0.974260   5 C  pz        
    63      0.773210   2 C  pz              247     -0.773173   6 C  pz        
   169     -0.672050   4 C  d  1             31     -0.588840   1 C  d  1      
    60      0.493009   2 C  pz              244     -0.492980   6 C  pz        
   106      0.488853   3 C  pz              198     -0.488866   5 C  pz        
 
 Vector   33  Occ=0.000000D+00  E= 6.825687D-02
              MO Center= -1.2D-02,  1.9D-01, -2.7D-04, r^2= 1.8D+01
   Bfn.  Coefficient  Atom+Function         Bfn.  Coefficient  Atom+Function  
  ----- ------------  ---------------      ----- ------------  ---------------
    63      1.024595   2 C  pz              247      1.024566   6 C  pz        
   109     -0.810129   3 C  pz              201     -0.810012   5 C  pz        
   155     -0.754149   4 C  pz               14      0.626625   1 C  pz        
   152     -0.621526   4 C  pz               17      0.456728   1 C  pz        
   213     -0.450687   5 C  d -1            121     -0.406725   3 C  d -1      
 
 Vector   34  Occ=0.000000D+00  E= 7.644859D-02
              MO Center=  9.0D-03, -1.6D-01, -1.3D-04, r^2= 3.5D+01
   Bfn.  Coefficient  Atom+Function         Bfn.  Coefficient  Atom+Function  
  ----- ------------  ---------------      ----- ------------  ---------------
    51     13.935706   2 C  s               235    -13.938117   6 C  s         
    97     12.418417   3 C  s               189    -12.419228   5 C  s         
    15      7.697241   1 C  px              153      7.726846   4 C  px        
   107      4.781551   3 C  px              303      4.694600   8 H  s         
   349     -4.693906  10 H  s               199      4.474255   5 C  px        
 
 Vector   35  Occ=0.000000D+00  E= 7.791599D-02
              MO Center=  2.1D-01, -3.3D+00,  1.3D-04, r^2= 2.1D+01
   Bfn.  Coefficient  Atom+Function         Bfn.  Coefficient  Atom+Function  
  ----- ------------  ---------------      ----- ------------  ---------------
   143     18.376539   4 C  s                51    -13.491987   2 C  s         
   235    -13.487179   6 C  s               326      7.040100   9 H  s         
    62      5.675641   2 C  py              246      5.698727   6 C  py        
   200      5.423138   5 C  py              154      5.291017   4 C  py        
   108      5.062710   3 C  py              279      4.196156   7 H  s         
 
 Vector   36  Occ=0.000000D+00  E= 8.153019D-02
              MO Center= -8.8D-02,  1.4D+00,  6.9D-05, r^2= 2.8D+01
   Bfn.  Coefficient  Atom+Function         Bfn.  Coefficient  Atom+Function  
  ----- ------------  ---------------      ----- ------------  ---------------
   143     20.710788   4 C  s                51     -8.945899   2 C  s         
   235     -8.948441   6 C  s               246      5.251339   6 C  py        
    62      5.156765   2 C  py              325     -4.971223   9 H  s         
   280     -4.556509   7 H  s               372     -4.556984  11 H  s         
   200      4.484485   5 C  py              326      4.484585   9 H  s         
 
 Vector   37  Occ=0.000000D+00  E= 8.317518D-02
              MO Center=  4.6D-02, -7.3D-01, -1.0D-05, r^2= 2.2D+01
   Bfn.  Coefficient  Atom+Function         Bfn.  Coefficient  Atom+Function  
  ----- ------------  ---------------      ----- ------------  ---------------
    97      4.930027   3 C  s               189     -4.930334   5 C  s         
    51     -3.087985   2 C  s               235      3.090507   6 C  s         
   303      2.798635   8 H  s               349     -2.798661  10 H  s         
   108      2.784369   3 C  py              200     -2.670818   5 C  py        
   153      2.607397   4 C  px               96      2.077921   3 C  s         
 
 Vector   38  Occ=0.000000D+00  E= 9.543269D-02
              MO Center= -5.5D-02,  8.7D-01,  1.4D-05, r^2= 3.1D+01
   Bfn.  Coefficient  Atom+Function         Bfn.  Coefficient  Atom+Function  
  ----- ------------  ---------------      ----- ------------  ---------------
    51     17.618681   2 C  s               235    -17.620392   6 C  s         
   280      7.209795   7 H  s               372     -7.209791  11 H  s         
    97     -6.896019   3 C  s               189      6.896266   5 C  s         
   108     -6.464096   3 C  py              303     -6.203843   8 H  s         
   349      6.203272  10 H  s               200      5.922958   5 C  py        
 
 Vector   39  Occ=0.000000D+00  E= 1.017762D-01
              MO Center= -7.4D-03,  1.2D-01, -3.3D-04, r^2= 1.9D+01
   Bfn.  Coefficient  Atom+Function         Bfn.  Coefficient  Atom+Function  
  ----- ------------  ---------------      ----- ------------  ---------------
    51     13.892184   2 C  s               235    -13.891132   6 C  s         
    97     10.837468   3 C  s               189    -10.837872   5 C  s         
    15     10.039830   1 C  px              153      9.732765   4 C  px        
   108     -6.080952   3 C  py              200      6.048944   5 C  py        
   246     -6.064176   6 C  py               62      5.877445   2 C  py        
 
 Vector   40  Occ=0.000000D+00  E= 1.064318D-01
              MO Center= -7.8D-03,  1.2D-01, -5.6D-04, r^2= 2.1D+01
   Bfn.  Coefficient  Atom+Function         Bfn.  Coefficient  Atom+Function  
  ----- ------------  ---------------      ----- ------------  ---------------
   143     18.401189   4 C  s                51     -9.997617   2 C  s         
   235     -9.997611   6 C  s                 5     -9.426343   1 C  s         
   107     -8.774805   3 C  px              199      7.989052   5 C  px        
   245     -7.033977   6 C  px              200      6.764159   5 C  py        
    61      6.478552   2 C  px              108      5.707763   3 C  py        
 
 Vector   41  Occ=0.000000D+00  E= 1.082090D-01
              MO Center= -1.0D-02,  1.6D-01, -9.3D-05, r^2= 2.2D+01
   Bfn.  Coefficient  Atom+Function         Bfn.  Coefficient  Atom+Function  
  ----- ------------  ---------------      ----- ------------  ---------------
    63      3.390190   2 C  pz              247     -3.390265   6 C  pz        
   109     -3.367079   3 C  pz              201      3.367491   5 C  pz        
    60      0.698714   2 C  pz              244     -0.698737   6 C  pz        
   106     -0.636459   3 C  pz              198      0.636548   5 C  pz        
    77     -0.381728   2 C  d  1            215      0.361029   5 C  d  1      
 
 Vector   42  Occ=0.000000D+00  E= 1.089824D-01
              MO Center=  2.9D-02, -4.7D-01,  2.2D-03, r^2= 2.1D+01
   Bfn.  Coefficient  Atom+Function         Bfn.  Coefficient  Atom+Function  
  ----- ------------  ---------------      ----- ------------  ---------------
   155      5.309109   4 C  pz              109     -3.436557   3 C  pz        
   201     -3.436284   5 C  pz               17      2.529792   1 C  pz        
   152      0.983822   4 C  pz              106     -0.603010   3 C  pz        
   198     -0.602968   5 C  pz              167      0.571179   4 C  d -1      
    14      0.506678   1 C  pz               63     -0.485106   2 C  pz        
 
 Vector   43  Occ=0.000000D+00  E= 1.094880D-01
              MO Center=  2.9D-02, -4.6D-01, -1.2D-03, r^2= 2.7D+01
   Bfn.  Coefficient  Atom+Function         Bfn.  Coefficient  Atom+Function  
  ----- ------------  ---------------      ----- ------------  ---------------
   326      7.669971   9 H  s               154      7.052477   4 C  py        
   303     -6.484980   8 H  s               349     -6.485348  10 H  s         
   143     -5.588354   4 C  s               108     -4.431292   3 C  py        
   200     -4.184189   5 C  py               62     -4.147710   2 C  py        
   246     -4.129606   6 C  py                4      3.935949   1 C  s         
 
 Vector   44  Occ=0.000000D+00  E= 1.177982D-01
              MO Center= -4.1D-02,  6.5D-01, -4.3D-04, r^2= 1.4D+01
   Bfn.  Coefficient  Atom+Function         Bfn.  Coefficient  Atom+Function  
  ----- ------------  ---------------      ----- ------------  ---------------
    17      6.881594   1 C  pz               63     -6.025627   2 C  pz        
   247     -6.025464   6 C  pz              109      5.062673   3 C  pz        
   201      5.062499   5 C  pz              155     -4.835027   4 C  pz        
    14      1.241062   1 C  pz               60     -1.023952   2 C  pz        
   244     -1.023917   6 C  pz              106      0.900091   3 C  pz        
 
 Vector   45  Occ=0.000000D+00  E= 1.264119D-01
              MO Center= -1.8D-02,  2.9D-01, -1.8D-05, r^2= 2.5D+01
   Bfn.  Coefficient  Atom+Function         Bfn.  Coefficient  Atom+Function  
  ----- ------------  ---------------      ----- ------------  ---------------
    51      7.532129   2 C  s               235     -7.532067   6 C  s         
   107      7.227131   3 C  px              199      7.154093   5 C  px        
   245     -7.035305   6 C  px               61     -6.921492   2 C  px        
    15      6.402963   1 C  px               97     -6.183159   3 C  s         
   189      6.183222   5 C  s               153     -5.854783   4 C  px        
 
 Vector   46  Occ=0.000000D+00  E= 1.274649D-01
              MO Center= -1.2D-02,  1.9D-01,  1.3D-04, r^2= 2.6D+01
   Bfn.  Coefficient  Atom+Function         Bfn.  Coefficient  Atom+Function  
  ----- ------------  ---------------      ----- ------------  ---------------
   154     -7.986224   4 C  py               16      7.481631   1 C  py        
   108      6.862119   3 C  py               62     -6.608588   2 C  py        
   200      6.539116   5 C  py              246     -6.411330   6 C  py        
   326     -4.039749   9 H  s                 5      3.555055   1 C  s         
   303      3.164315   8 H  s               349      3.164694  10 H  s         
 
 Vector   47  Occ=0.000000D+00  E= 1.609690D-01
              MO Center= -8.6D-03,  1.4D-01,  9.5D-05, r^2= 1.7D+01
   Bfn.  Coefficient  Atom+Function         Bfn.  Coefficient  Atom+Function  
  ----- ------------  ---------------      ----- ------------  ---------------
    17      8.184006   1 C  pz               63     -7.994599   2 C  pz        
   247     -7.994709   6 C  pz              155     -7.838581   4 C  pz        
   109      7.755479   3 C  pz              201      7.755592   5 C  pz        
    60     -1.191047   2 C  pz              106      1.195788   3 C  pz        
   198      1.195821   5 C  pz              244     -1.191075   6 C  pz        
 
 Vector   48  Occ=0.000000D+00  E= 1.660335D-01
              MO Center= -8.9D-02,  1.4D+00,  3.2D-04, r^2= 2.2D+01
   Bfn.  Coefficient  Atom+Function         Bfn.  Coefficient  Atom+Function  
  ----- ------------  ---------------      ----- ------------  ---------------
     5     59.257098   1 C  s                51    -25.958131   2 C  s         
   143     25.956021   4 C  s               235    -25.958721   6 C  s         
    97    -14.427798   3 C  s               189    -14.426997   5 C  s         
   154      7.413135   4 C  py              245      6.808128   6 C  px        
    61     -6.395413   2 C  px              326      6.139415   9 H  s         
 
 Vector   49  Occ=0.000000D+00  E= 1.755639D-01
              MO Center=  2.5D-02, -3.9D-01, -1.8D-04, r^2= 1.1D+01
   Bfn.  Coefficient  Atom+Function         Bfn.  Coefficient  Atom+Function  
  ----- ------------  ---------------      ----- ------------  ---------------
   335      1.099743   9 H  pz              312      1.087723   8 H  pz        
   358      1.087669  10 H  pz               17      1.036643   1 C  pz        
   289      0.969350   7 H  pz              381      0.969304  11 H  pz        
    63     -0.956367   2 C  pz              247     -0.956336   6 C  pz        
   106     -0.838964   3 C  pz              198     -0.838906   5 C  pz        
 
 Vector   50  Occ=0.000000D+00  E= 1.864319D-01
              MO Center=  3.4D-02, -5.4D-01,  1.0D-04, r^2= 1.5D+01
   Bfn.  Coefficient  Atom+Function         Bfn.  Coefficient  Atom+Function  
  ----- ------------  ---------------      ----- ------------  ---------------
     5     15.717345   1 C  s                97     -7.343424   3 C  s         
   189     -7.342944   5 C  s                51     -4.487586   2 C  s         
   235     -4.487445   6 C  s               325      4.442951   9 H  s         
    62     -4.079316   2 C  py              154      4.019536   4 C  py        
   246     -3.855635   6 C  py               50     -3.282145   2 C  s         
 
 Vector   51  Occ=0.000000D+00  E= 1.979785D-01
              MO Center= -3.0D-02,  4.7D-01,  3.6D-04, r^2= 2.3D+01
   Bfn.  Coefficient  Atom+Function         Bfn.  Coefficient  Atom+Function  
  ----- ------------  ---------------      ----- ------------  ---------------
    51     44.589973   2 C  s               235    -44.583368   6 C  s         
    97     25.234836   3 C  s               189    -25.236574   5 C  s         
    15     18.479703   1 C  px              153     17.073100   4 C  px        
   302    -14.006896   8 H  s               348     14.007513  10 H  s         
   200      9.300897   5 C  py              108     -8.581624   3 C  py        
 
 Vector   52  Occ=0.000000D+00  E= 1.983564D-01
              MO Center=  4.7D-02, -7.4D-01, -4.9D-04, r^2= 2.3D+01
   Bfn.  Coefficient  Atom+Function         Bfn.  Coefficient  Atom+Function  
  ----- ------------  ---------------      ----- ------------  ---------------
   143     61.357592   4 C  s                51    -34.541725   2 C  s         
   235    -34.550011   6 C  s               325    -16.821442   9 H  s         
    62     14.703649   2 C  py              246     14.431727   6 C  py        
   200     13.800358   5 C  py              108     12.586363   3 C  py        
     5    -11.575230   1 C  s               279     11.193065   7 H  s         
 
 Vector   53  Occ=0.000000D+00  E= 2.153919D-01
              MO Center=  8.3D-02, -1.3D+00, -2.8D-05, r^2= 1.5D+01
   Bfn.  Coefficient  Atom+Function         Bfn.  Coefficient  Atom+Function  
  ----- ------------  ---------------      ----- ------------  ---------------
    97     14.027579   3 C  s               189    -14.027152   5 C  s         
   153      6.727689   4 C  px               96      6.544930   3 C  s         
   188     -6.545012   5 C  s               279     -5.194857   7 H  s         
   371      5.194639  11 H  s               246     -4.685074   6 C  py        
   303      4.651484   8 H  s               349     -4.651206  10 H  s         
 
 Vector   54  Occ=0.000000D+00  E= 2.182800D-01
              MO Center=  1.7D-02, -2.8D-01, -1.8D-04, r^2= 1.5D+01
   Bfn.  Coefficient  Atom+Function         Bfn.  Coefficient  Atom+Function  
  ----- ------------  ---------------      ----- ------------  ---------------
   143     26.140195   4 C  s                51    -17.977194   2 C  s         
   235    -17.987715   6 C  s                 5     15.946601   1 C  s         
    16     -6.484271   1 C  py              325     -6.122131   9 H  s         
    62      4.908026   2 C  py              246      4.788504   6 C  py        
   279      3.825016   7 H  s               371      3.825490  11 H  s         
 
 Vector   55  Occ=0.000000D+00  E= 2.191436D-01
              MO Center=  1.1D-02, -1.7D-01,  1.1D-03, r^2= 1.5D+01
   Bfn.  Coefficient  Atom+Function         Bfn.  Coefficient  Atom+Function  
  ----- ------------  ---------------      ----- ------------  ---------------
    51     19.767118   2 C  s               235    -19.758699   6 C  s         
   108     -8.591045   3 C  py              200      8.223192   5 C  py        
    15      7.333498   1 C  px              302     -6.944104   8 H  s         
   348      6.944161  10 H  s               153      5.983041   4 C  px        
   246     -3.812224   6 C  py               62      3.684680   2 C  py        
 
 Vector   56  Occ=0.000000D+00  E= 2.300850D-01
              MO Center= -1.8D-02,  2.9D-01,  1.9D-03, r^2= 1.8D+01
   Bfn.  Coefficient  Atom+Function         Bfn.  Coefficient  Atom+Function  
  ----- ------------  ---------------      ----- ------------  ---------------
   199      4.940266   5 C  px              107      4.667364   3 C  px        
   153     -3.555517   4 C  px               50     -3.192594   2 C  s         
   234      3.192179   6 C  s               303      3.186976   8 H  s         
   349     -3.186284  10 H  s                15     -2.665134   1 C  px        
   108      2.479437   3 C  py               59      1.999532   2 C  py        
 
 Vector   57  Occ=0.000000D+00  E= 2.312013D-01
              MO Center= -2.3D-04,  3.9D-03, -3.8D-03, r^2= 1.6D+01
   Bfn.  Coefficient  Atom+Function         Bfn.  Coefficient  Atom+Function  
  ----- ------------  ---------------      ----- ------------  ---------------
   106      2.137488   3 C  pz              198     -2.137502   5 C  pz        
    60      2.054558   2 C  pz              244     -2.054518   6 C  pz        
   312     -1.817712   8 H  pz              358      1.817757  10 H  pz        
   289     -1.721064   7 H  pz              381      1.721030  11 H  pz        
   169     -1.372131   4 C  d  1             31     -1.256660   1 C  d  1      
 
 Vector   58  Occ=0.000000D+00  E= 2.354211D-01
              MO Center= -1.4D-02,  2.2D-01,  4.8D-04, r^2= 1.6D+01
   Bfn.  Coefficient  Atom+Function         Bfn.  Coefficient  Atom+Function  
  ----- ------------  ---------------      ----- ------------  ---------------
   143     14.764685   4 C  s                51    -10.348517   2 C  s         
   235    -10.340480   6 C  s               107     -8.178238   3 C  px        
   199      7.750579   5 C  px               61      5.437627   2 C  px        
   245     -5.308265   6 C  px              303     -4.425402   8 H  s         
   349     -4.426807  10 H  s                 5      4.020983   1 C  s         
 
 Vector   59  Occ=0.000000D+00  E= 2.366155D-01
              MO Center= -4.5D-03,  7.3D-02,  9.7D-04, r^2= 1.7D+01
   Bfn.  Coefficient  Atom+Function         Bfn.  Coefficient  Atom+Function  
  ----- ------------  ---------------      ----- ------------  ---------------
    97    -32.935984   3 C  s               189     32.936453   5 C  s         
    51     31.473180   2 C  s               235    -31.476780   6 C  s         
    96    -14.356540   3 C  s               188     14.355977   5 C  s         
   279     10.728292   7 H  s               371    -10.727344  11 H  s         
   302    -10.620469   8 H  s               348     10.620328  10 H  s         
 
 Vector   60  Occ=0.000000D+00  E= 2.434545D-01
              MO Center=  2.5D-03, -4.0D-02, -4.6D-04, r^2= 1.5D+01
   Bfn.  Coefficient  Atom+Function         Bfn.  Coefficient  Atom+Function  
  ----- ------------  ---------------      ----- ------------  ---------------
   152      3.412876   4 C  pz               14     -3.019969   1 C  pz        
   289      2.172801   7 H  pz              381      2.172815  11 H  pz        
   335     -2.125521   9 H  pz              261      1.998638   6 C  d  1      
    77     -1.984197   2 C  d  1             63     -1.597084   2 C  pz        
   247     -1.597009   6 C  pz              155      1.372371   4 C  pz        
 
 Vector   61  Occ=0.000000D+00  E= 2.595393D-01
              MO Center=  3.9D-02, -6.2D-01,  6.4D-05, r^2= 1.7D+01
   Bfn.  Coefficient  Atom+Function         Bfn.  Coefficient  Atom+Function  
  ----- ------------  ---------------      ----- ------------  ---------------
     5      8.990272   1 C  s               108     -6.689029   3 C  py        
   200     -6.093830   5 C  py              303     -5.200391   8 H  s         
   349     -5.200308  10 H  s               199      5.124704   5 C  px        
   197     -4.818394   5 C  py              105     -4.716739   3 C  py        
   143     -4.569003   4 C  s               154      4.535593   4 C  py        
 
 Vector   62  Occ=0.000000D+00  E= 2.619472D-01
              MO Center=  6.7D-02, -1.1D+00, -5.6D-05, r^2= 1.7D+01
   Bfn.  Coefficient  Atom+Function         Bfn.  Coefficient  Atom+Function  
  ----- ------------  ---------------      ----- ------------  ---------------
     5     18.833550   1 C  s               143     15.292014   4 C  s         
   154     15.278058   4 C  py               51    -14.579212   2 C  s         
   235    -14.580522   6 C  s               326      9.145920   9 H  s         
     4      5.995267   1 C  s                97     -4.628020   3 C  s         
   108     -4.636023   3 C  py              189     -4.626530   5 C  s         
 
 Vector   63  Occ=0.000000D+00  E= 2.677189D-01
              MO Center= -2.7D-02,  4.3D-01,  6.7D-05, r^2= 2.0D+01
   Bfn.  Coefficient  Atom+Function         Bfn.  Coefficient  Atom+Function  
  ----- ------------  ---------------      ----- ------------  ---------------
    51     20.333636   2 C  s               235    -20.333242   6 C  s         
    97    -11.983116   3 C  s               189     11.983550   5 C  s         
    61     11.022275   2 C  px              245     10.270764   6 C  px        
    96     -8.858661   3 C  s               188      8.858791   5 C  s         
   279      8.788791   7 H  s               371     -8.789057  11 H  s         
 
 Vector   64  Occ=0.000000D+00  E= 2.747889D-01
              MO Center= -5.6D-04,  8.9D-03,  6.8D-05, r^2= 1.4D+01
   Bfn.  Coefficient  Atom+Function         Bfn.  Coefficient  Atom+Function  
  ----- ------------  ---------------      ----- ------------  ---------------
   143      9.014550   4 C  s                 5      8.870179   1 C  s         
   154      5.833160   4 C  py              279     -5.586402   7 H  s         
   371     -5.585986  11 H  s               302     -4.663530   8 H  s         
   348     -4.663133  10 H  s               325     -4.415433   9 H  s         
    16     -4.086228   1 C  py              246      3.255312   6 C  py        
 
 Vector   65  Occ=0.000000D+00  E= 2.831458D-01
              MO Center= -1.2D-02,  1.9D-01, -2.2D-05, r^2= 1.6D+01
   Bfn.  Coefficient  Atom+Function         Bfn.  Coefficient  Atom+Function  
  ----- ------------  ---------------      ----- ------------  ---------------
    12      9.580320   1 C  px               97      8.773949   3 C  s         
   189     -8.773985   5 C  s               302      8.098635   8 H  s         
   348     -8.098241  10 H  s                51     -7.980028   2 C  s         
   235      7.979517   6 C  s               199      7.577459   5 C  px        
   107      7.106151   3 C  px              150      6.207751   4 C  px        
 
 Vector   66  Occ=0.000000D+00  E= 2.954604D-01
              MO Center= -3.4D-03,  5.3D-02, -2.4D-05, r^2= 1.6D+01
   Bfn.  Coefficient  Atom+Function         Bfn.  Coefficient  Atom+Function  
  ----- ------------  ---------------      ----- ------------  ---------------
    63      3.200482   2 C  pz              109     -3.192687   3 C  pz        
   201      3.192278   5 C  pz              247     -3.200247   6 C  pz        
   289     -2.275489   7 H  pz              381      2.275515  11 H  pz        
    60      2.261163   2 C  pz              244     -2.261169   6 C  pz        
   312      2.266295   8 H  pz              358     -2.266191  10 H  pz        
 
 Vector   67  Occ=0.000000D+00  E= 2.963265D-01
              MO Center= -6.1D-02,  9.6D-01,  4.1D-04, r^2= 1.4D+01
   Bfn.  Coefficient  Atom+Function         Bfn.  Coefficient  Atom+Function  
  ----- ------------  ---------------      ----- ------------  ---------------
     4     10.469927   1 C  s                59     -5.755613   2 C  py        
   243     -5.646214   6 C  py                5      5.516432   1 C  s         
   105     -5.505738   3 C  py              197     -5.119733   5 C  py        
    16      4.297096   1 C  py              279     -4.176380   7 H  s         
   371     -4.176123  11 H  s                13      3.939353   1 C  py        
 
 Vector   68  Occ=0.000000D+00  E= 3.081029D-01
              MO Center=  1.7D-02, -2.7D-01, -4.6D-04, r^2= 1.5D+01
   Bfn.  Coefficient  Atom+Function         Bfn.  Coefficient  Atom+Function  
  ----- ------------  ---------------      ----- ------------  ---------------
   155      5.181345   4 C  pz               14      4.374487   1 C  pz        
   109     -3.744474   3 C  pz              201     -3.744619   5 C  pz        
   335     -2.713153   9 H  pz               60     -2.042351   2 C  pz        
   244     -2.042234   6 C  pz              152      1.862461   4 C  pz        
    17      1.842665   1 C  pz               29     -1.721307   1 C  d -1      
 
 Vector   69  Occ=0.000000D+00  E= 3.149607D-01
              MO Center=  5.1D-03, -8.0D-02,  1.9D-05, r^2= 9.1D+00
   Bfn.  Coefficient  Atom+Function         Bfn.  Coefficient  Atom+Function  
  ----- ------------  ---------------      ----- ------------  ---------------
   261      1.305667   6 C  d  1             77      1.179026   2 C  d  1      
   169     -1.167341   4 C  d  1             75     -1.081646   2 C  d -1      
   259      0.925163   6 C  d -1            289     -0.725404   7 H  pz        
   381      0.725406  11 H  pz               31      0.719500   1 C  d  1      
    60     -0.356710   2 C  pz              244      0.356935   6 C  pz        
 
 Vector   70  Occ=0.000000D+00  E= 3.282585D-01
              MO Center=  3.9D-02, -6.2D-01,  9.6D-05, r^2= 1.5D+01
   Bfn.  Coefficient  Atom+Function         Bfn.  Coefficient  Atom+Function  
  ----- ------------  ---------------      ----- ------------  ---------------
   142     12.260281   4 C  s                96      8.707433   3 C  s         
   188      8.707560   5 C  s               151     -6.904710   4 C  py        
   325     -6.002174   9 H  s                 4     -5.334503   1 C  s         
     5      5.024865   1 C  s               334     -5.043060   9 H  py        
   302     -4.332059   8 H  s               348     -4.331462  10 H  s         
 
 Vector   71  Occ=0.000000D+00  E= 3.345050D-01
              MO Center= -1.8D-03,  2.9D-02,  1.8D-04, r^2= 7.8D+00
   Bfn.  Coefficient  Atom+Function         Bfn.  Coefficient  Atom+Function  
  ----- ------------  ---------------      ----- ------------  ---------------
   289      2.091930   7 H  pz              381      2.092078  11 H  pz        
   335      1.906633   9 H  pz               14     -1.778025   1 C  pz        
   155     -1.778299   4 C  pz               63     -1.654111   2 C  pz        
   247     -1.654129   6 C  pz               77     -1.544636   2 C  d  1      
   261      1.435690   6 C  d  1            106     -1.393397   3 C  pz        
 
 Vector   72  Occ=0.000000D+00  E= 3.433065D-01
              MO Center=  2.4D-02, -3.8D-01, -4.6D-03, r^2= 1.2D+01
   Bfn.  Coefficient  Atom+Function         Bfn.  Coefficient  Atom+Function  
  ----- ------------  ---------------      ----- ------------  ---------------
   169      3.277357   4 C  d  1             31      2.721965   1 C  d  1      
   312     -2.477945   8 H  pz              358      2.477583  10 H  pz        
   123      2.178394   3 C  d  1            215      2.137578   5 C  d  1      
   106     -1.782406   3 C  pz              198      1.782451   5 C  pz        
   289     -1.435883   7 H  pz              381      1.435799  11 H  pz        
 
 Vector   73  Occ=0.000000D+00  E= 3.447818D-01
              MO Center= -3.6D-02,  5.8D-01, -2.0D-03, r^2= 1.2D+01
   Bfn.  Coefficient  Atom+Function         Bfn.  Coefficient  Atom+Function  
  ----- ------------  ---------------      ----- ------------  ---------------
   143     23.904140   4 C  s               325    -13.031340   9 H  s         
    51    -11.914416   2 C  s               235    -11.920618   6 C  s         
   279     11.792380   7 H  s               371     11.794529  11 H  s         
     5     -7.325274   1 C  s               197     -6.898470   5 C  py        
   105     -6.774102   3 C  py              243     -6.081257   6 C  py        
 
 Vector   74  Occ=0.000000D+00  E= 3.475802D-01
              MO Center=  9.6D-03, -1.5D-01,  4.2D-03, r^2= 1.2D+01
   Bfn.  Coefficient  Atom+Function         Bfn.  Coefficient  Atom+Function  
  ----- ------------  ---------------      ----- ------------  ---------------
    51     21.228593   2 C  s               235    -21.224398   6 C  s         
   302    -11.917598   8 H  s               348     11.919755  10 H  s         
    97     10.712447   3 C  s               189    -10.714617   5 C  s         
   279     -9.624253   7 H  s               371      9.618718  11 H  s         
    12     -8.096535   1 C  px              150     -7.073616   4 C  px        
 
 Vector   75  Occ=0.000000D+00  E= 3.480845D-01
              MO Center=  3.5D-02, -5.6D-01,  3.0D-03, r^2= 1.3D+01
   Bfn.  Coefficient  Atom+Function         Bfn.  Coefficient  Atom+Function  
  ----- ------------  ---------------      ----- ------------  ---------------
   155     -3.872122   4 C  pz               17      3.670076   1 C  pz        
   109      3.464837   3 C  pz              201      3.464947   5 C  pz        
    63     -3.342881   2 C  pz              247     -3.342958   6 C  pz        
   152     -3.035362   4 C  pz              213     -2.314145   5 C  d -1      
   289      2.233451   7 H  pz              381      2.233338  11 H  pz        
 
 Vector   76  Occ=0.000000D+00  E= 3.527391D-01
              MO Center=  3.2D-02, -5.0D-01, -1.7D-04, r^2= 1.4D+01
   Bfn.  Coefficient  Atom+Function         Bfn.  Coefficient  Atom+Function  
  ----- ------------  ---------------      ----- ------------  ---------------
    17      6.427938   1 C  pz               63     -5.887240   2 C  pz        
   247     -5.887302   6 C  pz              109      5.155860   3 C  pz        
   201      5.155891   5 C  pz              155     -4.882551   4 C  pz        
   335      3.893134   9 H  pz               14      3.865228   1 C  pz        
   167      3.013497   4 C  d -1             60     -2.700030   2 C  pz        
 
 Vector   77  Occ=0.000000D+00  E= 3.548463D-01
              MO Center= -1.9D-02,  3.0D-01, -6.9D-04, r^2= 1.5D+01
   Bfn.  Coefficient  Atom+Function         Bfn.  Coefficient  Atom+Function  
  ----- ------------  ---------------      ----- ------------  ---------------
     5     31.495349   1 C  s                51    -15.556295   2 C  s         
   143     15.547223   4 C  s               235    -15.554332   6 C  s         
   151    -11.057401   4 C  py              196     -7.644156   5 C  px        
    50      7.331356   2 C  s               234      7.331261   6 C  s         
    13      7.228790   1 C  py              104      7.193887   3 C  px        
 
 Vector   78  Occ=0.000000D+00  E= 3.599496D-01
              MO Center= -4.7D-02,  7.5D-01,  2.3D-04, r^2= 1.3D+01
   Bfn.  Coefficient  Atom+Function         Bfn.  Coefficient  Atom+Function  
  ----- ------------  ---------------      ----- ------------  ---------------
   289      3.403222   7 H  pz              381     -3.403316  11 H  pz        
    60      3.156763   2 C  pz              244     -3.156774   6 C  pz        
    77     -3.078644   2 C  d  1            121     -3.092574   3 C  d -1      
   259      3.035017   6 C  d -1            213      2.790905   5 C  d -1      
   312     -2.769401   8 H  pz              358      2.769296  10 H  pz        
 
 Vector   79  Occ=0.000000D+00  E= 3.688747D-01
              MO Center=  3.6D-02, -5.7D-01, -1.3D-04, r^2= 1.3D+01
   Bfn.  Coefficient  Atom+Function         Bfn.  Coefficient  Atom+Function  
  ----- ------------  ---------------      ----- ------------  ---------------
    96     10.717180   3 C  s               188     10.716081   5 C  s         
   104     -8.468641   3 C  px              196      8.447283   5 C  px        
     5      7.559938   1 C  s               142     -7.531544   4 C  s         
   212      5.390385   5 C  d -2            258      5.347761   6 C  d -2      
   120     -5.205869   3 C  d -2            242     -5.054473   6 C  px        
 
 Vector   80  Occ=0.000000D+00  E= 3.725445D-01
              MO Center=  2.0D-02, -3.1D-01, -2.0D-04, r^2= 1.3D+01
   Bfn.  Coefficient  Atom+Function         Bfn.  Coefficient  Atom+Function  
  ----- ------------  ---------------      ----- ------------  ---------------
    97     10.046849   3 C  s               189    -10.045595   5 C  s         
    50      9.184693   2 C  s               234     -9.184181   6 C  s         
   279     -5.592334   7 H  s               371      5.594764  11 H  s         
   357      5.268442  10 H  py              311     -5.151985   8 H  py        
   212     -4.871032   5 C  d -2            124      4.412505   3 C  d  2      
 
 Vector   81  Occ=0.000000D+00  E= 3.818823D-01
              MO Center=  3.6D-02, -5.7D-01, -1.1D-05, r^2= 1.6D+01
   Bfn.  Coefficient  Atom+Function         Bfn.  Coefficient  Atom+Function  
  ----- ------------  ---------------      ----- ------------  ---------------
   166      9.059888   4 C  d -2            333      7.103055   9 H  px        
   150     -6.650785   4 C  px              216     -6.533422   5 C  d  2      
   124      6.073370   3 C  d  2            279      5.961961   7 H  s         
   371     -5.962280  11 H  s               310      5.086018   8 H  px        
   356      5.028652  10 H  px               96     -4.814626   3 C  s         
 
 Vector   82  Occ=0.000000D+00  E= 3.933366D-01
              MO Center= -2.8D-02,  4.5D-01,  2.0D-04, r^2= 1.5D+01
   Bfn.  Coefficient  Atom+Function         Bfn.  Coefficient  Atom+Function  
  ----- ------------  ---------------      ----- ------------  ---------------
    12     12.055911   1 C  px               51    -10.808113   2 C  s         
   235     10.809643   6 C  s                78     -9.109630   2 C  d  2      
   262      8.772223   6 C  d  2             15     -6.773062   1 C  px        
   216      6.705604   5 C  d  2            124     -5.894795   3 C  d  2      
   153     -5.878644   4 C  px              150      5.759514   4 C  px        
 
 Vector   83  Occ=0.000000D+00  E= 3.961844D-01
              MO Center= -5.1D-02,  8.2D-01,  2.5D-04, r^2= 1.2D+01
   Bfn.  Coefficient  Atom+Function         Bfn.  Coefficient  Atom+Function  
  ----- ------------  ---------------      ----- ------------  ---------------
   152     -7.524638   4 C  pz              106      7.332893   3 C  pz        
   198      7.333055   5 C  pz               60     -6.482564   2 C  pz        
   244     -6.482632   6 C  pz              167     -6.345954   4 C  d -1      
   215      5.114663   5 C  d  1            123     -4.708717   3 C  d  1      
    14      4.577581   1 C  pz              259      4.031270   6 C  d -1      
 
 Vector   84  Occ=0.000000D+00  E= 4.017921D-01
              MO Center= -3.1D-02,  4.9D-01, -8.1D-04, r^2= 1.5D+01
   Bfn.  Coefficient  Atom+Function         Bfn.  Coefficient  Atom+Function  
  ----- ------------  ---------------      ----- ------------  ---------------
     5     50.149553   1 C  s                51    -18.883781   2 C  s         
   235    -18.879778   6 C  s                97    -17.092579   3 C  s         
   189    -17.089680   5 C  s               143     10.379076   4 C  s         
   142    -10.297247   4 C  s                 4     -9.507554   1 C  s         
   325      8.179103   9 H  s                50     -7.968902   2 C  s         
 
 Vector   85  Occ=0.000000D+00  E= 4.050849D-01
              MO Center= -8.4D-03,  1.3D-01, -4.8D-05, r^2= 1.3D+01
   Bfn.  Coefficient  Atom+Function         Bfn.  Coefficient  Atom+Function  
  ----- ------------  ---------------      ----- ------------  ---------------
[...]
  <S2> =   1.6608
  ----------------------------------------------------------------------------
     Transition Moments    X -0.00005   Y -0.00000   Z -0.24537
     Transition Moments   XX -0.00004  XY  0.00003  XZ  0.01070
     Transition Moments   YY -0.00013  YZ -0.16780  ZZ -0.00003
     Dipole Oscillator Strength                    0.0101143905
     Electric Quadrupole                           0.0000000024
     Magnetic Dipole                               0.0000000310
     Total Oscillator Strength                     0.0101144239
 
     Occ.   19 alpha a   ---  Virt.   26 alpha a   -0.98209 X
     Occ.   19 alpha a   ---  Virt.   35 alpha a    0.07137 X
     Occ.   19 alpha a   ---  Virt.   36 alpha a    0.07345 X
     Occ.   20 alpha a   ---  Virt.   25 alpha a   -0.11464 X
     Occ.   20 beta  a   ---  Virt.   26 beta  a    0.05075 X
  ----------------------------------------------------------------------------
  Root  28         a              0.252621076 a.u.                6.8742 eV 
  <S2> =   1.8898
  ----------------------------------------------------------------------------
     Transition Moments    X  0.00002   Y  0.00001   Z  0.00006
     Transition Moments   XX  0.00001  XY -0.00003  XZ  0.39162
     Transition Moments   YY  0.00007  YZ  0.02471  ZZ  0.00002
     Dipole Oscillator Strength                    0.0000000006
     Electric Quadrupole                           0.0000000132
     Magnetic Dipole                               0.0000000095
     Total Oscillator Strength                     0.0000000233
 
     Occ.   19 alpha a   ---  Virt.   25 alpha a   -0.24934 X
     Occ.   20 alpha a   ---  Virt.   26 alpha a   -0.95984 X
     Occ.   20 alpha a   ---  Virt.   35 alpha a    0.06165 X
     Occ.   20 alpha a   ---  Virt.   36 alpha a    0.06526 X
     Occ.   19 beta  a   ---  Virt.   26 beta  a    0.06502 X
  ----------------------------------------------------------------------------
  Root  29         a              0.253982931 a.u.                6.9112 eV 
  <S2> =   1.6180
  ----------------------------------------------------------------------------
     Transition Moments    X -0.00006   Y  0.00003   Z  0.00000
     Transition Moments   XX  0.00004  XY -0.00005  XZ  0.49212
     Transition Moments   YY  0.00014  YZ  0.03102  ZZ  0.00003
     Dipole Oscillator Strength                    0.0000000008
     Electric Quadrupole                           0.0000000212
     Magnetic Dipole                               0.0000000108
     Total Oscillator Strength                     0.0000000328
 
     Occ.   20 alpha a   ---  Virt.   26 alpha a   -0.06965 X
     Occ.   19 beta  a   ---  Virt.   26 beta  a   -0.98508 X
     Occ.   19 beta  a   ---  Virt.   35 beta  a    0.05799 X
     Occ.   19 beta  a   ---  Virt.   36 beta  a    0.07386 X
     Occ.   20 beta  a   ---  Virt.   25 beta  a    0.09746 X
  ----------------------------------------------------------------------------
  Root  30         a              0.254776628 a.u.                6.9328 eV 
  <S2> =   0.7985
  ----------------------------------------------------------------------------
     Transition Moments    X  0.36693   Y  0.60041   Z -0.00000
     Transition Moments   XX  0.64050  XY -0.11475  XZ -0.00002
     Transition Moments   YY  1.83333  YZ  0.00002  ZZ  0.14732
     Dipole Oscillator Strength                    0.0840997119
     Electric Quadrupole                           0.0000000673
     Magnetic Dipole                               0.0000000005
     Total Oscillator Strength                     0.0840997797
 
     Occ.   19 alpha a   ---  Virt.   22 alpha a    0.10244 X
     Occ.   19 alpha a   ---  Virt.   23 alpha a   -0.08907 X
     Occ.   20 alpha a   ---  Virt.   22 alpha a   -0.10166 X
     Occ.   20 alpha a   ---  Virt.   23 alpha a   -0.11521 X
     Occ.   21 alpha a   ---  Virt.   26 alpha a   -0.17559 X
     Occ.   21 alpha a   ---  Virt.   27 alpha a    0.08359 X
     Occ.   21 alpha a   ---  Virt.   28 alpha a    0.88521 X
     Occ.   21 alpha a   ---  Virt.   30 alpha a    0.12256 X
     Occ.   21 alpha a   ---  Virt.   31 alpha a    0.15731 X
     Occ.   21 alpha a   ---  Virt.   48 alpha a   -0.05423 X
     Occ.   15 beta  a   ---  Virt.   21 beta  a   -0.07197 X
     Occ.   16 beta  a   ---  Virt.   21 beta  a   -0.17637 X
     Occ.   19 beta  a   ---  Virt.   22 beta  a   -0.09656 X
     Occ.   19 beta  a   ---  Virt.   24 beta  a   -0.13446 X
     Occ.   20 beta  a   ---  Virt.   22 beta  a   -0.09382 X
     Occ.   20 beta  a   ---  Virt.   24 beta  a    0.07992 X
  ----------------------------------------------------------------------------
  Root  31         a              0.254777442 a.u.                6.9328 eV 
  <S2> =   0.7714
  ----------------------------------------------------------------------------
     Transition Moments    X  1.49788   Y -0.06190   Z -0.00003
     Transition Moments   XX -0.15409  XY -0.12202  XZ  0.00005
     Transition Moments   YY -0.51621  YZ -0.00003  ZZ -0.03990
     Dipole Oscillator Strength                    0.3817384201
     Electric Quadrupole                           0.0000000068
     Magnetic Dipole                               0.0000000066
     Total Oscillator Strength                     0.3817384335
 
     Occ.   19 alpha a   ---  Virt.   22 alpha a    0.37799 X
     Occ.   19 alpha a   ---  Virt.   22 alpha a   -0.05277 Y
     Occ.   20 alpha a   ---  Virt.   23 alpha a   -0.42515 X
     Occ.   20 alpha a   ---  Virt.   23 alpha a    0.05079 Y
     Occ.   20 alpha a   ---  Virt.   29 alpha a    0.14068 X
     Occ.   21 alpha a   ---  Virt.   25 alpha a   -0.06583 X
     Occ.   21 alpha a   ---  Virt.   27 alpha a    0.30849 X
     Occ.   21 alpha a   ---  Virt.   28 alpha a   -0.23985 X
     Occ.   13 beta  a   ---  Virt.   21 beta  a   -0.12464 X
     Occ.   15 beta  a   ---  Virt.   21 beta  a   -0.26562 X
     Occ.   19 beta  a   ---  Virt.   24 beta  a   -0.49629 X
     Occ.   19 beta  a   ---  Virt.   29 beta  a    0.13848 X
     Occ.   20 beta  a   ---  Virt.   22 beta  a   -0.34629 X
     Occ.   20 beta  a   ---  Virt.   22 beta  a    0.05570 Y
  ----------------------------------------------------------------------------
  Root  32         a              0.259987826 a.u.                7.0746 eV 
  <S2> =   0.7997
  ----------------------------------------------------------------------------
     Transition Moments    X -0.00001   Y  0.00001   Z -0.09455
     Transition Moments   XX  0.00001  XY  0.00001  XZ  0.04430
     Transition Moments   YY  0.00003  YZ -0.70323  ZZ -0.00000
     Dipole Oscillator Strength                    0.0015495642
     Electric Quadrupole                           0.0000000465
     Magnetic Dipole                               0.0000000323
     Total Oscillator Strength                     0.0015496430
 
     Occ.   21 alpha a   ---  Virt.   29 alpha a    0.97937 X
     Occ.   21 alpha a   ---  Virt.   33 alpha a    0.17941 X
  ----------------------------------------------------------------------------
  Root  33         a              0.265465656 a.u.                7.2237 eV 
  <S2> =   1.7809
  ----------------------------------------------------------------------------
     Transition Moments    X -0.00001   Y -0.00001   Z -0.00000
     Transition Moments   XX  0.00006  XY -0.00002  XZ -0.54550
     Transition Moments   YY  0.00003  YZ -0.03437  ZZ  0.00004
     Dipole Oscillator Strength                    0.0000000000
     Electric Quadrupole                           0.0000000298
     Magnetic Dipole                               0.0000000006
     Total Oscillator Strength                     0.0000000303
 
     Occ.   20 beta  a   ---  Virt.   27 beta  a    0.99102 X
     Occ.   20 beta  a   ---  Virt.   38 beta  a   -0.09654 X
  ----------------------------------------------------------------------------
  Root  34         a              0.267258225 a.u.                7.2725 eV 
  <S2> =   0.8191
  ----------------------------------------------------------------------------
     Transition Moments    X  0.07078   Y -1.12167   Z  0.00000
     Transition Moments   XX -0.12314  XY -0.05375  XZ  0.00001
     Transition Moments   YY  0.72616  YZ  0.00005  ZZ  0.01567
     Dipole Oscillator Strength                    0.2250604420
     Electric Quadrupole                           0.0000000214
     Magnetic Dipole                               0.0000000000
     Total Oscillator Strength                     0.2250604634
 
     Occ.   17 alpha a   ---  Virt.   23 alpha a   -0.08062 X
     Occ.   19 alpha a   ---  Virt.   23 alpha a    0.28187 X
     Occ.   19 alpha a   ---  Virt.   29 alpha a    0.15583 X
     Occ.   20 alpha a   ---  Virt.   22 alpha a    0.20798 X
     Occ.   21 alpha a   ---  Virt.   28 alpha a    0.27431 X
     Occ.   21 alpha a   ---  Virt.   30 alpha a   -0.52539 X
     Occ.   21 alpha a   ---  Virt.   31 alpha a    0.09910 X
     Occ.   14 beta  a   ---  Virt.   21 beta  a   -0.07616 X
     Occ.   16 beta  a   ---  Virt.   21 beta  a    0.48126 X
     Occ.   19 beta  a   ---  Virt.   22 beta  a    0.20793 X
     Occ.   20 beta  a   ---  Virt.   24 beta  a   -0.28337 X
     Occ.   20 beta  a   ---  Virt.   29 beta  a   -0.32285 X
  ----------------------------------------------------------------------------
  Root  35         a              0.270821665 a.u.                7.3694 eV 
  <S2> =   2.7059
  ----------------------------------------------------------------------------
     Transition Moments    X  0.00000   Y  0.00000   Z  0.00918
     Transition Moments   XX  0.00000  XY  0.00001  XZ -0.00930
     Transition Moments   YY -0.00003  YZ  0.14699  ZZ  0.00000
     Dipole Oscillator Strength                    0.0000152213
     Electric Quadrupole                           0.0000000023
     Magnetic Dipole                               0.0000000000
     Total Oscillator Strength                     0.0000152236
 
     Occ.   20 alpha a   ---  Virt.   27 alpha a   -0.79608 X
     Occ.   20 alpha a   ---  Virt.   38 alpha a    0.08793 X
     Occ.   19 beta  a   ---  Virt.   27 beta  a    0.57867 X
     Occ.   19 beta  a   ---  Virt.   38 beta  a   -0.06844 X
     Occ.   20 beta  a   ---  Virt.   30 beta  a   -0.06060 X
  ----------------------------------------------------------------------------
  Root  36         a              0.271341252 a.u.                7.3836 eV 
  <S2> =   1.0142
  ----------------------------------------------------------------------------
     Transition Moments    X  0.04201   Y -0.66268   Z  0.00000
     Transition Moments   XX  1.08202  XY  0.11356  XZ -0.00001
     Transition Moments   YY -0.71505  YZ  0.00006  ZZ  0.24849
     Dipole Oscillator Strength                    0.0797577739
     Electric Quadrupole                           0.0000000874
     Magnetic Dipole                               0.0000000000
     Total Oscillator Strength                     0.0797578613
 
     Occ.   17 alpha a   ---  Virt.   23 alpha a   -0.07674 X
     Occ.   19 alpha a   ---  Virt.   23 alpha a    0.12961 X
     Occ.   20 alpha a   ---  Virt.   22 alpha a    0.07001 X
     Occ.   21 alpha a   ---  Virt.   28 alpha a    0.05030 X
     Occ.   21 alpha a   ---  Virt.   30 alpha a    0.75779 X
     Occ.   21 alpha a   ---  Virt.   31 alpha a   -0.20620 X
     Occ.   21 alpha a   ---  Virt.   35 alpha a    0.07819 X
     Occ.   21 alpha a   ---  Virt.   40 alpha a   -0.05361 X
     Occ.   14 beta  a   ---  Virt.   21 beta  a   -0.07428 X
     Occ.   16 beta  a   ---  Virt.   21 beta  a    0.25921 X
     Occ.   19 beta  a   ---  Virt.   22 beta  a    0.08541 X
     Occ.   20 beta  a   ---  Virt.   24 beta  a   -0.13400 X
     Occ.   20 beta  a   ---  Virt.   29 beta  a   -0.48280 X
  ----------------------------------------------------------------------------
  Root  37         a              0.271363562 a.u.                7.3842 eV 
  <S2> =   2.7408
  ----------------------------------------------------------------------------
     Transition Moments    X  0.04804   Y  0.00602   Z -0.00000
     Transition Moments   XX -0.00124  XY -0.02890  XZ  0.00001
     Transition Moments   YY -0.00041  YZ -0.00004  ZZ -0.00110
     Dipole Oscillator Strength                    0.0004240110
     Electric Quadrupole                           0.0000000001
     Magnetic Dipole                               0.0000000017
     Total Oscillator Strength                     0.0004240128
 
     Occ.   17 alpha a   ---  Virt.   22 alpha a    0.59635 X
     Occ.   17 alpha a   ---  Virt.   41 alpha a   -0.05231 X
     Occ.   19 alpha a   ---  Virt.   32 alpha a   -0.08392 X
     Occ.   20 alpha a   ---  Virt.   29 alpha a    0.17234 X
     Occ.   20 alpha a   ---  Virt.   44 alpha a   -0.22665 X
     Occ.   20 alpha a   ---  Virt.   47 alpha a    0.17427 X
     Occ.   17 beta  a   ---  Virt.   22 beta  a   -0.64303 X
     Occ.   17 beta  a   ---  Virt.   41 beta  a    0.05424 X
     Occ.   19 beta  a   ---  Virt.   29 beta  a   -0.10920 X
     Occ.   19 beta  a   ---  Virt.   44 beta  a    0.20026 X
     Occ.   19 beta  a   ---  Virt.   47 beta  a   -0.16674 X
     Occ.   20 beta  a   ---  Virt.   31 beta  a   -0.10167 X
  ----------------------------------------------------------------------------
  Root  38         a              0.271819009 a.u.                7.3966 eV 
  <S2> =   0.8254
  ----------------------------------------------------------------------------
     Transition Moments    X -0.00001   Y  0.00001   Z -0.02413
     Transition Moments   XX -0.00002  XY -0.00006  XZ  0.05481
     Transition Moments   YY  0.00008  YZ -0.86833  ZZ -0.00002
     Dipole Oscillator Strength                    0.0001055270
     Electric Quadrupole                           0.0000000810
     Magnetic Dipole                               0.0000000039
     Total Oscillator Strength                     0.0001056119
 
     Occ.   20 alpha a   ---  Virt.   27 alpha a    0.57668 X
     Occ.   19 beta  a   ---  Virt.   27 beta  a    0.79962 X
     Occ.   19 beta  a   ---  Virt.   38 beta  a   -0.07501 X
     Occ.   20 beta  a   ---  Virt.   28 beta  a    0.12064 X
  ----------------------------------------------------------------------------
  Root  39         a              0.272317138 a.u.                7.4101 eV 
  <S2> =   1.7259
  ----------------------------------------------------------------------------
     Transition Moments    X  0.00001   Y -0.00000   Z  0.00002
     Transition Moments   XX -0.00006  XY  0.00002  XZ  0.54888
     Transition Moments   YY -0.00001  YZ  0.03484  ZZ -0.00003
     Dipole Oscillator Strength                    0.0000000001
     Electric Quadrupole                           0.0000000325
     Magnetic Dipole                               0.0000000013
     Total Oscillator Strength                     0.0000000339
 
     Occ.   19 alpha a   ---  Virt.   27 alpha a    0.99033 X
     Occ.   19 alpha a   ---  Virt.   38 alpha a   -0.09595 X
  ----------------------------------------------------------------------------
  Root  40         a              0.272582040 a.u.                7.4173 eV 
  <S2> =   1.9665
  ----------------------------------------------------------------------------
     Transition Moments    X -0.00001   Y  0.00004   Z  0.04176
     Transition Moments   XX  0.00002  XY  0.00003  XZ -0.02795
     Transition Moments   YY  0.00005  YZ  0.44211  ZZ  0.00001
     Dipole Oscillator Strength                    0.0003169667
     Electric Quadrupole                           0.0000000212
     Magnetic Dipole                               0.0000000046
     Total Oscillator Strength                     0.0003169925
 
     Occ.   19 alpha a   ---  Virt.   28 alpha a   -0.11840 X
     Occ.   20 alpha a   ---  Virt.   27 alpha a    0.11862 X
     Occ.   17 beta  a   ---  Virt.   21 beta  a   -0.05608 X
     Occ.   19 beta  a   ---  Virt.   27 beta  a    0.06378 X
     Occ.   20 beta  a   ---  Virt.   28 beta  a   -0.97066 X
     Occ.   20 beta  a   ---  Virt.   30 beta  a   -0.05363 X
     Occ.   20 beta  a   ---  Virt.   32 beta  a   -0.07485 X
     Occ.   20 beta  a   ---  Virt.   43 beta  a   -0.08126 X
 
              Target root =      1
          Target symmetry = none
      Ground state energy =   -231.646315052520
        Excitation energy =      0.106951697110
     Excited state energy =   -231.539363355410
 
  stored tddft:energy   -231.539363355410     

 Task  times  cpu:     2912.5s     wall:     3009.8s
 
 
                                NWChem Input Module
                                -------------------
 
 
 Summary of allocated global arrays
-----------------------------------
  No active global arrays



                         GA Statistics for process    0
                         ------------------------------

       create   destroy   get      put      acc     scatter   gather  read&inc
calls: 9569     9569     1.12e+07 4.28e+06 3.43e+06 5640        0      385     
number of processes/call 1.28e+00 1.71e+00 1.95e+00 0.00e+00 0.00e+00
bytes total:             1.00e+11 1.16e+10 1.07e+11 6.26e+04 0.00e+00 3.08e+03
bytes remote:            7.42e+10 1.10e+09 1.02e+11 0.00e+00 0.00e+00 0.00e+00
Max memory consumed for GA by this process: 205086464 bytes
 
MA_summarize_allocated_blocks: starting scan ...
MA_summarize_allocated_blocks: scan completed: 0 heap blocks, 0 stack blocks
MA usage statistics:

	allocation statistics:
					      heap	     stack
					      ----	     -----
	current number of blocks	         0	         0
	maximum number of blocks	        20	        52
	current total bytes		         0	         0
	maximum total bytes		   1166000	  68276408
	maximum total K-bytes		      1166	     68277
	maximum total M-bytes		         2	        69
 
 
                                     CITATION
                                     --------
                Please cite the following reference when publishing
                           results obtained with NWChem:
 
                 M. Valiev, E.J. Bylaska, N. Govind, K. Kowalski,
              T.P. Straatsma, H.J.J. van Dam, D. Wang, J. Nieplocha,
                        E. Apra, T.L. Windus, W.A. de Jong
                 "NWChem: a comprehensive and scalable open-source
                  solution for large scale molecular simulations"
                      Comput. Phys. Commun. 181, 1477 (2010)
                           doi:10.1016/j.cpc.2010.04.018
 
                                      AUTHORS
                                      -------
          E. Apra, E. J. Bylaska, W. A. de Jong, N. Govind, K. Kowalski,
       T. P. Straatsma, M. Valiev, H. J. J. van Dam, D. Wang, T. L. Windus,
        J. Hammond, J. Autschbach, K. Bhaskaran-Nair, J. Brabec, K. Lopata,
    S. A. Fischer, S. Krishnamoorthy, M. Jacquelin, W. Ma, M. Klemm, O. Villa,
      Y. Chen, V. Anisimov, F. Aquino, S. Hirata, M. T. Hackler, V. Konjkov,
            D. Mejia-Rodriguez, T. Risthaus, M. Malagoli, A. Marenich,
   A. Otero-de-la-Roza, J. Mullin, P. Nichols, R. Peverati, J. Pittner, Y. Zhao,
        P.-D. Fan, A. Fonari, M. J. Williamson, R. J. Harrison, J. R. Rehr,
      M. Dupuis, D. Silverstein, D. M. A. Smith, J. Nieplocha, V. Tipparaju,
    M. Krishnan, B. E. Van Kuiken, A. Vazquez-Mayagoitia, L. Jensen, M. Swart,
      Q. Wu, T. Van Voorhis, A. A. Auer, M. Nooijen, L. D. Crosby, E. Brown,
      G. Cisneros, G. I. Fann, H. Fruchtl, J. Garza, K. Hirao, R. A. Kendall,
      J. A. Nichols, K. Tsemekhman, K. Wolinski, J. Anchell, D. E. Bernholdt,
      P. Borowski, T. Clark, D. Clerc, H. Dachsel, M. J. O. Deegan, K. Dyall,
    D. Elwood, E. Glendening, M. Gutowski, A. C. Hess, J. Jaffe, B. G. Johnson,
     J. Ju, R. Kobayashi, R. Kutteh, Z. Lin, R. Littlefield, X. Long, B. Meng,
      T. Nakajima, S. Niu, L. Pollack, M. Rosing, K. Glaesemann, G. Sandrone,
      M. Stave, H. Taylor, G. Thomas, J. H. van Lenthe, A. T. Wong, Z. Zhang.

 Total times  cpu:     2912.6s     wall:     3009.9s
