 argument  1 = /storage/home/j/jbb5516/normalModes/mode618.21-p.nw
 


============================== echo of input deck ==============================
echo
start

title "None"

geometry
C    -0.08732469    1.38596389    0.00000005
C    -1.26855440    0.69097268   -0.00000002
C    -1.16854673   -0.70459838   -0.00000002
C     0.08279583   -1.31408201    0.00000004
C     1.24774275   -0.55235618   -0.00000001
C     1.17179510    0.84473102    0.00000005
H    -2.23220345    1.18251666   -0.00000010
H    -2.06771288   -1.30741442   -0.00000009
H     0.15080403   -2.39346453    0.00000000
H     2.21546070   -1.03754606   -0.00000013
H     2.06612747    1.45333963   -0.00000010
symmetry c1
end

basis spherical
 * library "aug-cc-pvtz"
end

dft
 direct
 mult 2
 iterations 500
 xc b3lyp
end

tddft
 nroots 40
 notriplet
 algorithm 1
end
task tddft energy
================================================================================


                                         
                                         
 
 
              Northwest Computational Chemistry Package (NWChem) 6.8
              ------------------------------------------------------
 
 
                    Environmental Molecular Sciences Laboratory
                       Pacific Northwest National Laboratory
                                Richland, WA 99352
 
                              Copyright (c) 1994-2017
                       Pacific Northwest National Laboratory
                            Battelle Memorial Institute
 
             NWChem is an open-source computational chemistry package
                        distributed under the terms of the
                      Educational Community License (ECL) 2.0
             A copy of the license is included with this distribution
                              in the LICENSE.TXT file
 
                                  ACKNOWLEDGMENT
                                  --------------

            This software and its documentation were developed at the
            EMSL at Pacific Northwest National Laboratory, a multiprogram
            national laboratory, operated for the U.S. Department of Energy
            by Battelle under Contract Number DE-AC05-76RL01830. Support
            for this work was provided by the Department of Energy Office
            of Biological and Environmental Research, Office of Basic
            Energy Sciences, and the Office of Advanced Scientific Computing.


           Job information
           ---------------

    hostname        = comp-sc-0112.acib.production.int.aci.ics.psu.edu
    program         = /gpfs/group/lxj18/default/jeffprograms/nwchem-6.8.1/bin/LINUX64/nwchem
    date            = Sun Sep 20 19:13:16 2020

    compiled        = Wed_Oct_03_14:08:39_2018
    source          = /gpfs/group/lxj18/default/jeffprograms/nwchem-6.8.1
    nwchem branch   = 6.8.1
    nwchem revision = v6.8-143-gdb0d964
    ga revision     = 5.6.5
    use scalapack   = F
    input           = /storage/home/j/jbb5516/normalModes/mode618.21-p.nw
    prefix          = mode618.21-p.
    data base       = ./mode618.21-p.db
    status          = startup
    nproc           =       20
    time left       =     -1s



           Memory information
           ------------------

    heap     =   13107198 doubles =    100.0 Mbytes
    stack    =   13107195 doubles =    100.0 Mbytes
    global   =   26214400 doubles =    200.0 Mbytes (distinct from heap & stack)
    total    =   52428793 doubles =    400.0 Mbytes
    verify   = yes
    hardfail = no 


           Directory information
           ---------------------
 
  0 permanent = .
  0 scratch   = .
 
 
 
 
                                NWChem Input Module
                                -------------------
 
 
                                       None
                                       ----

 Scaling coordinates for geometry "geometry" by  1.889725989
 (inverse scale =  0.529177249)

 Turning off AUTOSYM since
 SYMMETRY directive was detected!
 

          ------
          auto-z
          ------
 
 
                             Geometry "geometry" -> ""
                             -------------------------
 
 Output coordinates in angstroms (scale by  1.889725989 to convert to a.u.)
 
  No.       Tag          Charge          X              Y              Z
 ---- ---------------- ---------- -------------- -------------- --------------
    1 C                    6.0000    -0.08732281     1.38593420     0.00000005
    2 C                    6.0000    -1.26855252     0.69094299    -0.00000002
    3 C                    6.0000    -1.16854485    -0.70462807    -0.00000002
    4 C                    6.0000     0.08279771    -1.31411170     0.00000004
    5 C                    6.0000     1.24774463    -0.55238587    -0.00000001
    6 C                    6.0000     1.17179698     0.84470133     0.00000005
    7 H                    1.0000    -2.23220157     1.18248697    -0.00000010
    8 H                    1.0000    -2.06771100    -1.30744411    -0.00000009
    9 H                    1.0000     0.15080591    -2.39349422    -0.00000000
   10 H                    1.0000     2.21546258    -1.03757575    -0.00000013
   11 H                    1.0000     2.06612935     1.45330994    -0.00000010
 
      Atomic Mass 
      ----------- 
 
      C                 12.000000
      H                  1.007825
 

 Effective nuclear repulsion energy (a.u.)     195.0648795779

            Nuclear Dipole moment (a.u.) 
            ----------------------------
        X                 Y               Z
 ---------------- ---------------- ----------------
    -0.0000000000     0.0000000000     0.0000000000
 


                                Z-matrix (autoz)
                                -------- 

 Units are Angstrom for bonds and degrees for angles
 
      Type          Name      I     J     K     L     M      Value
      ----------- --------  ----- ----- ----- ----- ----- ----------
    1 Stretch                  1     2                       1.37052
    2 Stretch                  1     6                       1.37052
    3 Stretch                  2     3                       1.39915
    4 Stretch                  2     7                       1.08177
    5 Stretch                  3     4                       1.39188
    6 Stretch                  3     8                       1.08254
    7 Stretch                  4     5                       1.39188
    8 Stretch                  4     9                       1.08152
    9 Stretch                  5     6                       1.39915
   10 Stretch                  5    10                       1.08254
   11 Stretch                  6    11                       1.08177
   12 Bend                     1     2     3               116.37211
   13 Bend                     1     2     7               122.50355
   14 Bend                     1     6     5               116.37208
   15 Bend                     1     6    11               122.50358
   16 Bend                     2     1     6               126.26858
   17 Bend                     2     3     4               120.06789
   18 Bend                     2     3     8               119.73971
   19 Bend                     3     2     7               121.12435
   20 Bend                     3     4     5               120.85143
   21 Bend                     3     4     9               119.57428
   22 Bend                     4     3     8               120.19240
   23 Bend                     4     5     6               120.06792
   24 Bend                     4     5    10               120.19241
   25 Bend                     5     4     9               119.57429
   26 Bend                     5     6    11               121.12435
   27 Bend                     6     5    10               119.73967
   28 Torsion                  1     2     3     4           0.00000
   29 Torsion                  1     2     3     8        -180.00000
   30 Torsion                  1     6     5     4           0.00000
   31 Torsion                  1     6     5    10         180.00000
   32 Torsion                  2     1     6     5           0.00000
   33 Torsion                  2     1     6    11         180.00000
   34 Torsion                  2     3     4     5           0.00000
   35 Torsion                  2     3     4     9        -180.00000
   36 Torsion                  3     2     1     6           0.00000
   37 Torsion                  3     4     5     6           0.00000
   38 Torsion                  3     4     5    10        -180.00000
   39 Torsion                  4     3     2     7         180.00000
   40 Torsion                  4     5     6    11        -180.00000
   41 Torsion                  5     4     3     8         180.00000
   42 Torsion                  6     1     2     7        -180.00000
   43 Torsion                  6     5     4     9        -180.00000
   44 Torsion                  7     2     3     8           0.00000
   45 Torsion                  8     3     4     9           0.00000
   46 Torsion                  9     4     5    10           0.00000
   47 Torsion                 10     5     6    11           0.00000
 
 
            XYZ format geometry
            -------------------
    11
 geometry
 C                    -0.08732281     1.38593420     0.00000005
 C                    -1.26855252     0.69094299    -0.00000002
 C                    -1.16854485    -0.70462807    -0.00000002
 C                     0.08279771    -1.31411170     0.00000004
 C                     1.24774463    -0.55238587    -0.00000001
 C                     1.17179698     0.84470133     0.00000005
 H                    -2.23220157     1.18248697    -0.00000010
 H                    -2.06771100    -1.30744411    -0.00000009
 H                     0.15080591    -2.39349422    -0.00000000
 H                     2.21546258    -1.03757575    -0.00000013
 H                     2.06612935     1.45330994    -0.00000010
 
 ==============================================================================
                                internuclear distances
 ------------------------------------------------------------------------------
       center one      |      center two      | atomic units |  angstroms
 ------------------------------------------------------------------------------
    2 C                |   1 C                |     2.58990  |     1.37052
    3 C                |   2 C                |     2.64401  |     1.39915
    4 C                |   3 C                |     2.63027  |     1.39188
    5 C                |   4 C                |     2.63027  |     1.39188
    6 C                |   1 C                |     2.58990  |     1.37052
    6 C                |   5 C                |     2.64401  |     1.39915
    7 H                |   2 C                |     2.04426  |     1.08177
    8 H                |   3 C                |     2.04570  |     1.08254
    9 H                |   4 C                |     2.04378  |     1.08152
   10 H                |   5 C                |     2.04570  |     1.08254
   11 H                |   6 C                |     2.04426  |     1.08177
 ------------------------------------------------------------------------------
                         number of included internuclear distances:         11
 ==============================================================================



 ==============================================================================
                                 internuclear angles
 ------------------------------------------------------------------------------
        center 1       |       center 2       |       center 3       |  degrees
 ------------------------------------------------------------------------------
    2 C                |   1 C                |   6 C                |   126.27
    1 C                |   2 C                |   3 C                |   116.37
    1 C                |   2 C                |   7 H                |   122.50
    3 C                |   2 C                |   7 H                |   121.12
    2 C                |   3 C                |   4 C                |   120.07
    2 C                |   3 C                |   8 H                |   119.74
    4 C                |   3 C                |   8 H                |   120.19
    3 C                |   4 C                |   5 C                |   120.85
    3 C                |   4 C                |   9 H                |   119.57
    5 C                |   4 C                |   9 H                |   119.57
    4 C                |   5 C                |   6 C                |   120.07
    4 C                |   5 C                |  10 H                |   120.19
    6 C                |   5 C                |  10 H                |   119.74
    1 C                |   6 C                |   5 C                |   116.37
    1 C                |   6 C                |  11 H                |   122.50
    5 C                |   6 C                |  11 H                |   121.12
 ------------------------------------------------------------------------------
                            number of included internuclear angles:         16
 ==============================================================================





 Summary of "ao basis" -> "" (spherical)
 ------------------------------------------------------------------------------
       Tag                 Description            Shells   Functions and Types
 ---------------- ------------------------------  ------  ---------------------
 *                        aug-cc-pvtz                 on all atoms 


 
                                 NWChem DFT Module
                                 -----------------
 
 
                                       None
 
 
                      Basis "ao basis" -> "ao basis" (spherical)
                      -----
  C (Carbon)
  ----------
            Exponent  Coefficients 
       -------------- ---------------------------------------------------------
  1 S  8.23600000E+03  0.000531
  1 S  1.23500000E+03  0.004108
  1 S  2.80800000E+02  0.021087
  1 S  7.92700000E+01  0.081853
  1 S  2.55900000E+01  0.234817
  1 S  8.99700000E+00  0.434401
  1 S  3.31900000E+00  0.346129
  1 S  3.64300000E-01 -0.008983
 
  2 S  8.23600000E+03 -0.000113
  2 S  1.23500000E+03 -0.000878
  2 S  2.80800000E+02 -0.004540
  2 S  7.92700000E+01 -0.018133
  2 S  2.55900000E+01 -0.055760
  2 S  8.99700000E+00 -0.126895
  2 S  3.31900000E+00 -0.170352
  2 S  3.64300000E-01  0.598684
 
  3 S  9.05900000E-01  1.000000
 
  4 S  1.28500000E-01  1.000000
 
  5 S  4.40200000E-02  1.000000
 
  6 P  1.87100000E+01  0.014031
  6 P  4.13300000E+00  0.086866
  6 P  1.20000000E+00  0.290216
 
  7 P  3.82700000E-01  1.000000
 
  8 P  1.20900000E-01  1.000000
 
  9 P  3.56900000E-02  1.000000
 
 10 D  1.09700000E+00  1.000000
 
 11 D  3.18000000E-01  1.000000
 
 12 D  1.00000000E-01  1.000000
 
 13 F  7.61000000E-01  1.000000
 
 14 F  2.68000000E-01  1.000000
 
  H (Hydrogen)
  ------------
            Exponent  Coefficients 
       -------------- ---------------------------------------------------------
  1 S  3.38700000E+01  0.006068
  1 S  5.09500000E+00  0.045308
  1 S  1.15900000E+00  0.202822
 
  2 S  3.25800000E-01  1.000000
 
  3 S  1.02700000E-01  1.000000
 
  4 S  2.52600000E-02  1.000000
 
  5 P  1.40700000E+00  1.000000
 
  6 P  3.88000000E-01  1.000000
 
  7 P  1.02000000E-01  1.000000
 
  8 D  1.05700000E+00  1.000000
 
  9 D  2.47000000E-01  1.000000
 


 Summary of "ao basis" -> "ao basis" (spherical)
 ------------------------------------------------------------------------------
       Tag                 Description            Shells   Functions and Types
 ---------------- ------------------------------  ------  ---------------------
 C                        aug-cc-pvtz               14       46   5s4p3d2f
 H                        aug-cc-pvtz                9       23   4s3p2d




 Summary of "ao basis" -> "ao basis" (spherical)
 ------------------------------------------------------------------------------
       Tag                 Description            Shells   Functions and Types
 ---------------- ------------------------------  ------  ---------------------
 C                        aug-cc-pvtz               14       46   5s4p3d2f
 H                        aug-cc-pvtz                9       23   4s3p2d


  Caching 1-el integrals 
 
            General Information
            -------------------
          SCF calculation type: DFT
          Wavefunction type:  spin polarized.
          No. of atoms     :    11
          No. of electrons :    41
           Alpha electrons :    21
            Beta electrons :    20
          Charge           :     0
          Spin multiplicity:     2
          Use of symmetry is: off; symmetry adaption is: off
          Maximum number of iterations: 500
          This is a Direct SCF calculation.
          AO basis - number of functions:   391
                     number of shells:   129
          Convergence on energy requested:  1.00D-06
          Convergence on density requested:  1.00D-05
          Convergence on gradient requested:  5.00D-04
 
              XC Information
              --------------
                         B3LYP Method XC Potential
                     Hartree-Fock (Exact) Exchange  0.200          
                        Slater Exchange Functional  0.800 local    
                    Becke 1988 Exchange Functional  0.720 non-local
              Lee-Yang-Parr Correlation Functional  0.810          
                  VWN I RPA Correlation Functional  0.190 local    
 
             Grid Information
             ----------------
          Grid used for XC integration:  medium    
          Radial quadrature: Mura-Knowles        
          Angular quadrature: Lebedev. 
          Tag              B.-S. Rad. Rad. Pts. Rad. Cut. Ang. Pts.
          ---              ---------- --------- --------- ---------
          C                   0.70       49          15.0       434
          H                   0.35       45          17.0       434
          Grid pruning is: on 
          Number of quadrature shells:   519
          Spatial weights used:  Erf1
 
          Convergence Information
          -----------------------
          Convergence aids based upon iterative change in 
          total energy or number of iterations. 
          Levelshifting, if invoked, occurs when the 
          HOMO/LUMO gap drops below (HL_TOL):  1.00D-02
          DIIS, if invoked, will attempt to extrapolate 
          using up to (NFOCK): 10 stored Fock matrices.

                    Damping( 0%)  Levelshifting(0.5)       DIIS
                  --------------- ------------------- ---------------
          dE  on:    start            ASAP                start   
          dE off:    2 iters        500 iters           500 iters 

 
      Screening Tolerance Information
      -------------------------------
          Density screening/tol_rho:  1.00D-10
          AO Gaussian exp screening on grid/accAOfunc:  14
          CD Gaussian exp screening on grid/accCDfunc:  20
          XC Gaussian exp screening on grid/accXCfunc:  20
          Schwarz screening/accCoul:  1.00D-08

 
 WARNING : Found     7 linear dependencies 
 S eigenvalue threshold:     1.00000E-05
 Smallest S eigenvalue :     1.46228E-06
 Largest  S eigenvalue :     7.77456E-06
 

 !! The overlap matrix has   7 vectors deemed linearly dependent with
    eigenvalues:
 1.46D-06 2.23D-06 2.83D-06 3.55D-06 5.27D-06 5.96D-06 7.77D-06
 
 
      Superposition of Atomic Density Guess
      -------------------------------------
 
 Sum of atomic energies:        -228.52307259
 
      Non-variational initial energy
      ------------------------------

 Total energy =    -232.667312
 1-e energy   =    -691.330260
 2-e energy   =     263.598069
 HOMO         =      -0.182826
 LUMO         =      -0.022306
 
   Time after variat. SCF:      9.0
   Time prior to 1st pass:      9.0

 Grid_pts file          = ./mode618.21-p.gridpts.00
 Record size in doubles =  12289        No. of grid_pts per rec  =   3070
 Max. records in memory =      6        Max. recs in file   = 219044126

 Grid integrated density:      40.999766964884
 Requested integration accuracy:   0.10E-05

           Memory utilization after 1st SCF pass: 
           Heap Space remaining (MW):       12.96            12961278
          Stack Space remaining (MW):       13.10            13103676

   convergence    iter        energy       DeltaE   RMS-Dens  Diis-err    time
 ---------------- ----- ----------------- --------- --------- ---------  ------
 d= 0,ls=0.0,diis     1   -231.5816658904 -4.27D+02  6.23D-02  2.09D-01    19.7
                                                     7.03D-02  1.96D-01
 d= 0,ls=0.0,diis     2   -231.6397920295 -5.81D-02  6.14D-02  1.23D-02    30.3
                                                     6.92D-02  1.26D-02
 d= 0,ls=0.0,diis     3   -231.6445647228 -4.77D-03  1.28D-03  3.52D-03    41.0
                                                     1.39D-03  3.59D-03
 d= 0,ls=0.0,diis     4   -231.6457545174 -1.19D-03  2.08D-04  1.14D-03    51.6
                                                     2.12D-04  1.08D-03
 d= 0,ls=0.0,diis     5   -231.6462816244 -5.27D-04  3.40D-05  4.24D-05    62.3
                                                     3.12D-05  4.84D-05
  Resetting Diis
 d= 0,ls=0.0,diis     6   -231.6463092995 -2.77D-05  1.10D-05  8.18D-06    73.0
                                                     1.06D-05  6.73D-06
 d= 0,ls=0.0,diis     7   -231.6463156345 -6.34D-06  7.54D-06  2.24D-06    83.6
                                                     6.66D-06  2.43D-06
 d= 0,ls=0.0,diis     8   -231.6463165898 -9.55D-07  3.12D-06  5.81D-06    94.3
                                                     2.78D-06  5.18D-06


         Total DFT energy =     -231.646316589818
      One electron energy =     -696.566818681793
           Coulomb energy =      304.264992156600
    Exchange-Corr. energy =      -34.409369642537
 Nuclear repulsion energy =      195.064879577912

 Numeric. integr. density =       40.999984978052

     Total iterative time =     85.3s


 
                    DFT Final Alpha Molecular Orbital Analysis
                    ------------------------------------------
 
 Vector    1  Occ=1.000000D+00  E=-1.020505D+01
              MO Center= -8.7D-02,  1.4D+00,  4.8D-08, r^2= 3.0D-02
   Bfn.  Coefficient  Atom+Function         Bfn.  Coefficient  Atom+Function  
  ----- ------------  ---------------      ----- ------------  ---------------
     1      0.984142   1 C  s                 3      0.058854   1 C  s         
    50     -0.038213   2 C  s               234     -0.038212   6 C  s         
   279      0.038168   7 H  s               371      0.038170  11 H  s         
   143      0.037832   4 C  s                51     -0.030666   2 C  s         
   235     -0.030667   6 C  s                47      0.025795   2 C  s         
 
 Vector    2  Occ=1.000000D+00  E=-1.019190D+01
              MO Center=  9.1D-01, -5.2D-01, -1.4D-08, r^2= 8.0D-01
   Bfn.  Coefficient  Atom+Function         Bfn.  Coefficient  Atom+Function  
  ----- ------------  ---------------      ----- ------------  ---------------
   185      0.895555   5 C  s                93      0.358307   3 C  s         
   231      0.189932   6 C  s               142     -0.091348   4 C  s         
    47      0.062988   2 C  s               139      0.054488   4 C  s         
   187      0.053536   5 C  s               348      0.051264  10 H  s         
   325      0.046393   9 H  s                50      0.039681   2 C  s         
 
 Vector    3  Occ=1.000000D+00  E=-1.019187D+01
              MO Center= -8.4D-01, -6.1D-01, -2.2D-08, r^2= 8.2D-01
   Bfn.  Coefficient  Atom+Function         Bfn.  Coefficient  Atom+Function  
  ----- ------------  ---------------      ----- ------------  ---------------
    93      0.893627   3 C  s               185     -0.353574   5 C  s         
    47      0.202212   2 C  s               231     -0.093453   6 C  s         
   234      0.062470   6 C  s               302      0.060068   8 H  s         
    95      0.053254   3 C  s               235      0.052091   6 C  s         
   371     -0.051483  11 H  s                50     -0.048974   2 C  s         
 
 Vector    4  Occ=1.000000D+00  E=-1.019047D+01
              MO Center=  1.1D+00,  7.8D-01,  4.3D-08, r^2= 3.3D-01
   Bfn.  Coefficient  Atom+Function         Bfn.  Coefficient  Atom+Function  
  ----- ------------  ---------------      ----- ------------  ---------------
   231      0.944788   6 C  s               185     -0.201619   5 C  s         
    47      0.191917   2 C  s               371      0.058339  11 H  s         
   233      0.055158   6 C  s               143      0.037161   4 C  s         
     4     -0.034723   1 C  s                97      0.032689   3 C  s         
   142     -0.030739   4 C  s               235     -0.030309   6 C  s         
 
 Vector    5  Occ=1.000000D+00  E=-1.019045D+01
              MO Center= -1.2D+00,  6.3D-01, -2.1D-08, r^2= 3.4D-01
   Bfn.  Coefficient  Atom+Function         Bfn.  Coefficient  Atom+Function  
  ----- ------------  ---------------      ----- ------------  ---------------
    47      0.943289   2 C  s                93     -0.206768   3 C  s         
   231     -0.184525   6 C  s               279      0.056274   7 H  s         
    49      0.054716   2 C  s               185      0.053057   5 C  s         
   189      0.044880   5 C  s               188      0.040697   5 C  s         
    97     -0.038286   3 C  s                12      0.036598   1 C  px        
 
 Vector    6  Occ=1.000000D+00  E=-1.018442D+01
              MO Center=  8.3D-02, -1.3D+00,  3.9D-08, r^2= 3.5D-02
   Bfn.  Coefficient  Atom+Function         Bfn.  Coefficient  Atom+Function  
  ----- ------------  ---------------      ----- ------------  ---------------
   139      0.984265   4 C  s               141      0.057790   4 C  s         
   325      0.045865   9 H  s                96     -0.045442   3 C  s         
   188     -0.045440   5 C  s               143     -0.043327   4 C  s         
    93     -0.039876   3 C  s                 4      0.039670   1 C  s         
   185     -0.039772   5 C  s               151      0.035760   4 C  py        
 
 Vector    7  Occ=1.000000D+00  E=-8.725298D-01
              MO Center= -6.2D-03,  9.9D-02,  4.7D-09, r^2= 2.0D+00
   Bfn.  Coefficient  Atom+Function         Bfn.  Coefficient  Atom+Function  
  ----- ------------  ---------------      ----- ------------  ---------------
     2      0.213994   1 C  s                48      0.202692   2 C  s         
   232      0.202713   6 C  s                94      0.195515   3 C  s         
   186      0.195536   5 C  s               140      0.188327   4 C  s         
    50      0.090986   2 C  s               234      0.090992   6 C  s         
    96      0.088656   3 C  s               188      0.088665   5 C  s         
 
 Vector    8  Occ=1.000000D+00  E=-7.629953D-01
              MO Center= -6.4D-03,  1.0D-01,  1.6D-09, r^2= 2.8D+00
   Bfn.  Coefficient  Atom+Function         Bfn.  Coefficient  Atom+Function  
  ----- ------------  ---------------      ----- ------------  ---------------
    48      0.251079   2 C  s               232     -0.251067   6 C  s         
    94      0.243642   3 C  s               186     -0.243633   5 C  s         
    50      0.146736   2 C  s               234     -0.146734   6 C  s         
   279     -0.129220   7 H  s               371      0.129223  11 H  s         
   150     -0.115125   4 C  px               97      0.111087   3 C  s         
 
 Vector    9  Occ=1.000000D+00  E=-7.535210D-01
              MO Center=  9.4D-03, -1.5D-01, -2.7D-08, r^2= 2.6D+00
   Bfn.  Coefficient  Atom+Function         Bfn.  Coefficient  Atom+Function  
  ----- ------------  ---------------      ----- ------------  ---------------
   140     -0.301208   4 C  s                 2      0.278273   1 C  s         
    48      0.148181   2 C  s                94     -0.148660   3 C  s         
   186     -0.148670   5 C  s               142     -0.147876   4 C  s         
   232      0.148192   6 C  s                96     -0.104882   3 C  s         
   188     -0.104888   5 C  s                 4      0.103508   1 C  s         
 
 Vector   10  Occ=1.000000D+00  E=-6.188553D-01
              MO Center= -2.4D-03,  3.8D-02, -1.1D-08, r^2= 3.6D+00
   Bfn.  Coefficient  Atom+Function         Bfn.  Coefficient  Atom+Function  
  ----- ------------  ---------------      ----- ------------  ---------------
    94     -0.208692   3 C  s               186      0.208699   5 C  s         
    48      0.199330   2 C  s               232     -0.199322   6 C  s         
    50      0.183222   2 C  s               234     -0.183211   6 C  s         
    96     -0.146382   3 C  s               188      0.146382   5 C  s         
     6     -0.127172   1 C  px              144      0.116994   4 C  px        
 
 Vector   11  Occ=1.000000D+00  E=-6.034450D-01
              MO Center=  5.4D-03, -8.5D-02, -3.1D-08, r^2= 3.5D+00
   Bfn.  Coefficient  Atom+Function         Bfn.  Coefficient  Atom+Function  
  ----- ------------  ---------------      ----- ------------  ---------------
   142      0.257835   4 C  s                 2      0.239047   1 C  s         
   140      0.218408   4 C  s                 4      0.198454   1 C  s         
    94     -0.138583   3 C  s               186     -0.138560   5 C  s         
    50     -0.123147   2 C  s               234     -0.123153   6 C  s         
    96     -0.119381   3 C  s               188     -0.119367   5 C  s         
 
 Vector   12  Occ=1.000000D+00  E=-5.277701D-01
              MO Center=  9.3D-03, -1.5D-01, -1.1D-08, r^2= 4.1D+00
   Bfn.  Coefficient  Atom+Function         Bfn.  Coefficient  Atom+Function  
  ----- ------------  ---------------      ----- ------------  ---------------
   148      0.159316   4 C  py              145      0.138670   4 C  py        
   324     -0.126824   9 H  s                55      0.105137   2 C  px        
   240     -0.105335   6 C  py              323     -0.100275   9 H  s         
   237     -0.096543   6 C  py              278     -0.094535   7 H  s         
   370     -0.094545  11 H  s                10     -0.093801   1 C  py        
 
 Vector   13  Occ=1.000000D+00  E=-4.645866D-01
              MO Center= -6.6D-03,  1.1D-01, -2.0D-10, r^2= 2.7D+00
   Bfn.  Coefficient  Atom+Function         Bfn.  Coefficient  Atom+Function  
  ----- ------------  ---------------      ----- ------------  ---------------
     9      0.188749   1 C  px                6      0.175391   1 C  px        
   147      0.172104   4 C  px              144      0.159005   4 C  px        
   239     -0.138037   6 C  px              194     -0.133788   5 C  py        
    56     -0.130412   2 C  py               55     -0.122562   2 C  px        
   236     -0.122714   6 C  px              101     -0.120806   3 C  px        
 
 Vector   14  Occ=1.000000D+00  E=-4.632634D-01
              MO Center=  1.0D-02, -1.6D-01, -4.3D-08, r^2= 4.8D+00
   Bfn.  Coefficient  Atom+Function         Bfn.  Coefficient  Atom+Function  
  ----- ------------  ---------------      ----- ------------  ---------------
     2      0.176932   1 C  s               301      0.136859   8 H  s         
   347      0.136886  10 H  s               140     -0.129531   4 C  s         
   193      0.127743   5 C  px              196      0.120467   5 C  px        
   101     -0.118564   3 C  px              190      0.118608   5 C  px        
    96      0.116872   3 C  s               104     -0.117407   3 C  px        
 
 Vector   15  Occ=1.000000D+00  E=-4.403559D-01
              MO Center= -1.3D-02,  2.1D-01, -2.5D-08, r^2= 4.0D+00
   Bfn.  Coefficient  Atom+Function         Bfn.  Coefficient  Atom+Function  
  ----- ------------  ---------------      ----- ------------  ---------------
   240      0.144892   6 C  py              102      0.140019   3 C  py        
   237      0.133721   6 C  py               99      0.130925   3 C  py        
   278     -0.131127   7 H  s               370      0.131132  11 H  s         
    56     -0.129770   2 C  py               55      0.128594   2 C  px        
   194     -0.127885   5 C  py               53     -0.120570   2 C  py        
 
 Vector   16  Occ=1.000000D+00  E=-3.987120D-01
              MO Center=  4.9D-02, -7.9D-01, -1.1D-08, r^2= 3.3D+00
   Bfn.  Coefficient  Atom+Function         Bfn.  Coefficient  Atom+Function  
  ----- ------------  ---------------      ----- ------------  ---------------
   148      0.233778   4 C  py              145      0.209421   4 C  py        
   324     -0.198468   9 H  s               151      0.173705   4 C  py        
   323     -0.154150   9 H  s                10      0.138114   1 C  py        
    13      0.120407   1 C  py              240      0.115238   6 C  py        
    56      0.109551   2 C  py              194     -0.108382   5 C  py        
 
 Vector   17  Occ=1.000000D+00  E=-3.837323D-01
              MO Center= -7.5D-03,  1.2D-01, -5.8D-08, r^2= 2.7D+00
   Bfn.  Coefficient  Atom+Function         Bfn.  Coefficient  Atom+Function  
  ----- ------------  ---------------      ----- ------------  ---------------
    11      0.173079   1 C  pz               57      0.156644   2 C  pz        
   241      0.156659   6 C  pz              103      0.152050   3 C  pz        
   195      0.152065   5 C  pz              149      0.146134   4 C  pz        
     8      0.136565   1 C  pz               54      0.125930   2 C  pz        
   238      0.125942   6 C  pz              100      0.121618   3 C  pz        
 
 Vector   18  Occ=1.000000D+00  E=-3.662466D-01
              MO Center=  8.9D-03, -1.4D-01, -2.8D-08, r^2= 4.1D+00
   Bfn.  Coefficient  Atom+Function         Bfn.  Coefficient  Atom+Function  
  ----- ------------  ---------------      ----- ------------  ---------------
   147     -0.169254   4 C  px              101      0.165186   3 C  px        
   193      0.165113   5 C  px              144     -0.159899   4 C  px        
     9      0.149199   1 C  px               98      0.149438   3 C  px        
   190      0.149149   5 C  px                6      0.141608   1 C  px        
   196      0.135461   5 C  px              104      0.133353   3 C  px        
 
 Vector   19  Occ=1.000000D+00  E=-2.683343D-01
              MO Center=  1.2D-03, -1.8D-02,  8.1D-08, r^2= 3.0D+00
   Bfn.  Coefficient  Atom+Function         Bfn.  Coefficient  Atom+Function  
  ----- ------------  ---------------      ----- ------------  ---------------
    11      0.244631   1 C  pz              149     -0.239173   4 C  pz        
     8      0.192448   1 C  pz              146     -0.191166   4 C  pz        
    14      0.175518   1 C  pz              152     -0.171836   4 C  pz        
   103     -0.126003   3 C  pz              195     -0.126384   5 C  pz        
    57      0.115419   2 C  pz              241      0.115054   6 C  pz        
 
 Vector   20  Occ=1.000000D+00  E=-2.680733D-01
              MO Center= -4.2D-03,  6.4D-02,  2.8D-07, r^2= 3.1D+00
   Bfn.  Coefficient  Atom+Function         Bfn.  Coefficient  Atom+Function  
  ----- ------------  ---------------      ----- ------------  ---------------
   103      0.207086   3 C  pz              195     -0.206851   5 C  pz        
    57      0.204234   2 C  pz              241     -0.204436   6 C  pz        
   100      0.165029   3 C  pz              192     -0.164842   5 C  pz        
    54      0.163502   2 C  pz              238     -0.163663   6 C  pz        
    60      0.150890   2 C  pz              244     -0.151026   6 C  pz        
 
 Vector   21  Occ=1.000000D+00  E=-2.479024D-01
              MO Center= -8.2D-02,  1.3D+00,  8.0D-08, r^2= 2.3D+00
   Bfn.  Coefficient  Atom+Function         Bfn.  Coefficient  Atom+Function  
  ----- ------------  ---------------      ----- ------------  ---------------
    10      0.386185   1 C  py               13      0.338136   1 C  py        
     5      0.334863   1 C  s                 7      0.299584   1 C  py        
     4      0.279014   1 C  s                 2      0.137940   1 C  s         
   243     -0.136197   6 C  py               59     -0.134189   2 C  py        
   102      0.112098   3 C  py              194      0.112118   5 C  py        
 
 Vector   22  Occ=0.000000D+00  E=-2.610606D-02
              MO Center= -4.1D-03,  6.5D-02, -1.1D-06, r^2= 4.3D+00
   Bfn.  Coefficient  Atom+Function         Bfn.  Coefficient  Atom+Function  
  ----- ------------  ---------------      ----- ------------  ---------------
   109     -0.319954   3 C  pz              201      0.319980   5 C  pz        
    63      0.313818   2 C  pz              247     -0.313833   6 C  pz        
    60      0.226804   2 C  pz              244     -0.226813   6 C  pz        
   106     -0.224063   3 C  pz              198      0.224079   5 C  pz        
    57      0.218597   2 C  pz              241     -0.218601   6 C  pz        
 
 Vector   23  Occ=0.000000D+00  E=-1.855188D-02
              MO Center=  2.9D-03, -4.7D-02, -4.1D-06, r^2= 4.3D+00
   Bfn.  Coefficient  Atom+Function         Bfn.  Coefficient  Atom+Function  
  ----- ------------  ---------------      ----- ------------  ---------------
   155      0.439439   4 C  pz               17      0.374534   1 C  pz        
   152      0.273517   4 C  pz               11      0.259098   1 C  pz        
   149      0.250574   4 C  pz               14      0.240807   1 C  pz        
   109     -0.226670   3 C  pz              201     -0.226656   5 C  pz        
     8      0.200818   1 C  pz               63     -0.198354   2 C  pz        
 
 Vector   24  Occ=0.000000D+00  E=-1.011099D-02
              MO Center=  6.0D-02, -9.5D-01, -2.3D-06, r^2= 2.0D+01
   Bfn.  Coefficient  Atom+Function         Bfn.  Coefficient  Atom+Function  
  ----- ------------  ---------------      ----- ------------  ---------------
     5      1.445433   1 C  s               279     -0.974914   7 H  s         
   371     -0.974886  11 H  s               326     -0.739750   9 H  s         
   303     -0.731267   8 H  s               349     -0.731491  10 H  s         
   302     -0.651355   8 H  s               348     -0.651340  10 H  s         
   325     -0.587043   9 H  s                51      0.563001   2 C  s         
 
 Vector   25  Occ=0.000000D+00  E= 4.371685D-03
              MO Center=  1.6D-02, -2.6D-01, -9.4D-06, r^2= 2.7D+01
   Bfn.  Coefficient  Atom+Function         Bfn.  Coefficient  Atom+Function  
  ----- ------------  ---------------      ----- ------------  ---------------
    51      2.730850   2 C  s               235     -2.731343   6 C  s         
    97      2.672126   3 C  s               189     -2.672119   5 C  s         
   303      1.996835   8 H  s               349     -1.996768  10 H  s         
    15      1.869748   1 C  px              153      1.811607   4 C  px        
   280      1.539515   7 H  s               372     -1.539650  11 H  s         
 
 Vector   26  Occ=0.000000D+00  E= 8.723619D-03
              MO Center=  4.6D-03, -7.2D-02,  5.5D-05, r^2= 2.7D+01
   Bfn.  Coefficient  Atom+Function         Bfn.  Coefficient  Atom+Function  
  ----- ------------  ---------------      ----- ------------  ---------------
   143      6.241636   4 C  s                51     -4.002048   2 C  s         
   235     -4.001974   6 C  s               326      2.930404   9 H  s         
     5      2.577530   1 C  s               280     -2.388188   7 H  s         
   372     -2.388219  11 H  s               154      1.945344   4 C  py        
   246      1.936814   6 C  py               62      1.832684   2 C  py        
 
 Vector   27  Occ=0.000000D+00  E= 2.669412D-02
              MO Center= -1.5D-02,  2.4D-01, -2.5D-05, r^2= 3.1D+01
   Bfn.  Coefficient  Atom+Function         Bfn.  Coefficient  Atom+Function  
  ----- ------------  ---------------      ----- ------------  ---------------
   280      3.926669   7 H  s               372     -3.926668  11 H  s         
    51      3.649984   2 C  s               235     -3.649630   6 C  s         
   303     -3.597419   8 H  s               349      3.597878  10 H  s         
    61      2.206690   2 C  px               97     -2.193403   3 C  s         
   189      2.193311   5 C  s               199     -2.027403   5 C  px        
 
 Vector   28  Occ=0.000000D+00  E= 3.221186D-02
              MO Center=  3.9D-02, -6.3D-01, -1.2D-04, r^2= 2.9D+01
   Bfn.  Coefficient  Atom+Function         Bfn.  Coefficient  Atom+Function  
  ----- ------------  ---------------      ----- ------------  ---------------
     5      6.387573   1 C  s               326     -5.003893   9 H  s         
   303      3.725610   8 H  s               349      3.725147  10 H  s         
    97     -2.179021   3 C  s               154     -2.179568   4 C  py        
   189     -2.179297   5 C  s               199     -1.646061   5 C  px        
   245      1.630989   6 C  px               61     -1.577739   2 C  px        
 
 Vector   29  Occ=0.000000D+00  E= 4.329071D-02
              MO Center=  1.4D-02, -2.2D-01,  1.0D-05, r^2= 1.3D+01
   Bfn.  Coefficient  Atom+Function         Bfn.  Coefficient  Atom+Function  
  ----- ------------  ---------------      ----- ------------  ---------------
   155      0.596394   4 C  pz               63      0.579361   2 C  pz        
   247      0.579413   6 C  pz               17     -0.265356   1 C  pz        
    60     -0.154018   2 C  pz              244     -0.153990   6 C  pz        
   289     -0.124366   7 H  pz              381     -0.124369  11 H  pz        
   259      0.120416   6 C  d -1             77      0.109792   2 C  d  1      
 
 Vector   30  Occ=0.000000D+00  E= 5.494189D-02
              MO Center=  9.3D-03, -1.5D-01, -4.1D-05, r^2= 1.5D+01
   Bfn.  Coefficient  Atom+Function         Bfn.  Coefficient  Atom+Function  
  ----- ------------  ---------------      ----- ------------  ---------------
     5     10.824343   1 C  s               143      5.414953   4 C  s         
    51     -4.584009   2 C  s               235     -4.584340   6 C  s         
   303     -2.813068   8 H  s               349     -2.813210  10 H  s         
   326      2.097452   9 H  s               199      2.029779   5 C  px        
    97     -1.976371   3 C  s               189     -1.976582   5 C  s         
 
 Vector   31  Occ=0.000000D+00  E= 6.337044D-02
              MO Center= -4.1D-02,  6.5D-01, -1.0D-04, r^2= 2.8D+01
   Bfn.  Coefficient  Atom+Function         Bfn.  Coefficient  Atom+Function  
  ----- ------------  ---------------      ----- ------------  ---------------
     5     24.343804   1 C  s                51     -9.795496   2 C  s         
   235     -9.796036   6 C  s               143      7.555906   4 C  s         
    97     -6.515471   3 C  s               189     -6.515498   5 C  s         
   326      5.858630   9 H  s               154      4.761437   4 C  py        
   303     -4.673692   8 H  s               349     -4.673594  10 H  s         
 
 Vector   32  Occ=0.000000D+00  E= 6.572725D-02
              MO Center=  1.4D-03, -2.3D-02,  5.4D-04, r^2= 1.8D+01
   Bfn.  Coefficient  Atom+Function         Bfn.  Coefficient  Atom+Function  
  ----- ------------  ---------------      ----- ------------  ---------------
   109      0.974320   3 C  pz              201     -0.974342   5 C  pz        
    63      0.771437   2 C  pz              247     -0.771472   6 C  pz        
   169     -0.677229   4 C  d  1             31     -0.585093   1 C  d  1      
   106      0.492674   3 C  pz              198     -0.492662   5 C  pz        
    60      0.489837   2 C  pz              244     -0.489867   6 C  pz        
 
 Vector   33  Occ=0.000000D+00  E= 6.826228D-02
              MO Center= -1.2D-02,  1.9D-01, -2.7D-04, r^2= 1.8D+01
   Bfn.  Coefficient  Atom+Function         Bfn.  Coefficient  Atom+Function  
  ----- ------------  ---------------      ----- ------------  ---------------
    63      1.038826   2 C  pz              247      1.038871   6 C  pz        
   109     -0.823755   3 C  pz              201     -0.823897   5 C  pz        
   155     -0.740051   4 C  pz               14      0.622332   1 C  pz        
   152     -0.611104   4 C  pz              213     -0.450275   5 C  d -1      
    17      0.442591   1 C  pz              121     -0.406848   3 C  d -1      
 
 Vector   34  Occ=0.000000D+00  E= 7.644093D-02
              MO Center=  1.2D-02, -1.6D-01, -1.3D-04, r^2= 3.4D+01
   Bfn.  Coefficient  Atom+Function         Bfn.  Coefficient  Atom+Function  
  ----- ------------  ---------------      ----- ------------  ---------------
    51     13.881349   2 C  s               235    -13.877261   6 C  s         
    97     12.411645   3 C  s               189    -12.410172   5 C  s         
   153      7.729198   4 C  px               15      7.687866   1 C  px        
   107      4.766845   3 C  px              303      4.685381   8 H  s         
   349     -4.686538  10 H  s               199      4.462965   5 C  px        
 
 Vector   35  Occ=0.000000D+00  E= 7.790973D-02
              MO Center=  2.1D-01, -3.3D+00,  1.3D-04, r^2= 2.1D+01
   Bfn.  Coefficient  Atom+Function         Bfn.  Coefficient  Atom+Function  
  ----- ------------  ---------------      ----- ------------  ---------------
   143     18.284745   4 C  s                51    -13.438723   2 C  s         
   235    -13.447266   6 C  s               326      7.027427   9 H  s         
    62      5.659499   2 C  py              246      5.682103   6 C  py        
   200      5.393553   5 C  py              154      5.272047   4 C  py        
   108      5.033560   3 C  py              279      4.184217   7 H  s         
 
 Vector   36  Occ=0.000000D+00  E= 8.154993D-02
              MO Center= -9.0D-02,  1.4D+00,  6.8D-05, r^2= 2.8D+01
   Bfn.  Coefficient  Atom+Function         Bfn.  Coefficient  Atom+Function  
  ----- ------------  ---------------      ----- ------------  ---------------
   143     20.664250   4 C  s                51     -8.907019   2 C  s         
   235     -8.902846   6 C  s               246      5.257761   6 C  py        
    62      5.161981   2 C  py              325     -4.953280   9 H  s         
   280     -4.563806   7 H  s               372     -4.562785  11 H  s         
   326      4.497069   9 H  s               200      4.466396   5 C  py        
 
 Vector   37  Occ=0.000000D+00  E= 8.317405D-02
              MO Center=  4.6D-02, -7.3D-01, -1.0D-05, r^2= 2.2D+01
   Bfn.  Coefficient  Atom+Function         Bfn.  Coefficient  Atom+Function  
  ----- ------------  ---------------      ----- ------------  ---------------
    97      4.942853   3 C  s               189     -4.942620   5 C  s         
    51     -3.120499   2 C  s               235      3.117731   6 C  s         
   108      2.826076   3 C  py              303      2.813838   8 H  s         
   349     -2.813764  10 H  s               200     -2.710899   5 C  py        
   153      2.578671   4 C  px               96      2.064428   3 C  s         
 
 Vector   38  Occ=0.000000D+00  E= 9.540602D-02
              MO Center= -5.5D-02,  8.8D-01,  1.4D-05, r^2= 3.1D+01
   Bfn.  Coefficient  Atom+Function         Bfn.  Coefficient  Atom+Function  
  ----- ------------  ---------------      ----- ------------  ---------------
    51     17.652725   2 C  s               235    -17.651086   6 C  s         
   280      7.211303   7 H  s               372     -7.211421  11 H  s         
    97     -6.924554   3 C  s               189      6.924075   5 C  s         
   108     -6.515545   3 C  py              303     -6.194254   8 H  s         
   349      6.195183  10 H  s               200      5.978450   5 C  py        
 
 Vector   39  Occ=0.000000D+00  E= 1.017438D-01
              MO Center= -7.1D-03,  1.1D-01, -3.3D-04, r^2= 1.9D+01
   Bfn.  Coefficient  Atom+Function         Bfn.  Coefficient  Atom+Function  
  ----- ------------  ---------------      ----- ------------  ---------------
    51     13.755662   2 C  s               235    -13.756364   6 C  s         
    97     10.887446   3 C  s               189    -10.887089   5 C  s         
    15      9.994458   1 C  px              153      9.731499   4 C  px        
   246     -6.060407   6 C  py              108     -6.013759   3 C  py        
   200      5.982813   5 C  py               62      5.875033   2 C  py        
 
 Vector   40  Occ=0.000000D+00  E= 1.064885D-01
              MO Center= -7.6D-03,  1.2D-01, -5.6D-04, r^2= 2.1D+01
   Bfn.  Coefficient  Atom+Function         Bfn.  Coefficient  Atom+Function  
  ----- ------------  ---------------      ----- ------------  ---------------
   143     18.215416   4 C  s                51     -9.915135   2 C  s         
   235     -9.915981   6 C  s                 5     -9.408170   1 C  s         
   107     -8.798065   3 C  px              199      8.023684   5 C  px        
   245     -7.042914   6 C  px              200      6.673901   5 C  py        
    61      6.494612   2 C  px              108      5.613832   3 C  py        
 
 Vector   41  Occ=0.000000D+00  E= 1.081827D-01
              MO Center= -1.0D-02,  1.6D-01, -9.6D-05, r^2= 2.2D+01
   Bfn.  Coefficient  Atom+Function         Bfn.  Coefficient  Atom+Function  
  ----- ------------  ---------------      ----- ------------  ---------------
    63      3.389259   2 C  pz              247     -3.389135   6 C  pz        
   109     -3.361925   3 C  pz              201      3.361819   5 C  pz        
    60      0.698226   2 C  pz              244     -0.698188   6 C  pz        
   106     -0.638390   3 C  pz              198      0.638354   5 C  pz        
    77     -0.382856   2 C  d  1            215      0.363779   5 C  d  1      
 
 Vector   42  Occ=0.000000D+00  E= 1.089798D-01
              MO Center=  3.0D-02, -4.7D-01,  2.2D-03, r^2= 2.1D+01
   Bfn.  Coefficient  Atom+Function         Bfn.  Coefficient  Atom+Function  
  ----- ------------  ---------------      ----- ------------  ---------------
   155      5.325947   4 C  pz              109     -3.445887   3 C  pz        
   201     -3.445926   5 C  pz               17      2.509571   1 C  pz        
   152      0.982141   4 C  pz              106     -0.602132   3 C  pz        
   198     -0.602124   5 C  pz              167      0.567438   4 C  d -1      
    14      0.504475   1 C  pz               63     -0.474321   2 C  pz        
 
 Vector   43  Occ=0.000000D+00  E= 1.094920D-01
              MO Center=  2.8D-02, -4.5D-01, -1.2D-03, r^2= 2.7D+01
   Bfn.  Coefficient  Atom+Function         Bfn.  Coefficient  Atom+Function  
  ----- ------------  ---------------      ----- ------------  ---------------
   326      7.634146   9 H  s               154      7.114348   4 C  py        
   303     -6.425858   8 H  s               349     -6.425135  10 H  s         
   143     -5.851288   4 C  s               108     -4.516839   3 C  py        
   200     -4.287156   5 C  py               62     -4.227800   2 C  py        
   246     -4.193161   6 C  py                4      3.900066   1 C  s         
 
 Vector   44  Occ=0.000000D+00  E= 1.177972D-01
              MO Center= -4.1D-02,  6.5D-01, -4.1D-04, r^2= 1.4D+01
   Bfn.  Coefficient  Atom+Function         Bfn.  Coefficient  Atom+Function  
  ----- ------------  ---------------      ----- ------------  ---------------
    17      6.881187   1 C  pz               63     -6.014626   2 C  pz        
   247     -6.014810   6 C  pz              109      5.043401   3 C  pz        
   201      5.043599   5 C  pz              155     -4.823106   4 C  pz        
    14      1.238259   1 C  pz               60     -1.019747   2 C  pz        
   244     -1.019787   6 C  pz              106      0.891915   3 C  pz        
 
 Vector   45  Occ=0.000000D+00  E= 1.263877D-01
              MO Center= -1.8D-02,  2.9D-01, -2.0D-05, r^2= 2.5D+01
   Bfn.  Coefficient  Atom+Function         Bfn.  Coefficient  Atom+Function  
  ----- ------------  ---------------      ----- ------------  ---------------
    51      7.626132   2 C  s               235     -7.625946   6 C  s         
   107      7.221974   3 C  px              199      7.139396   5 C  px        
   245     -7.054718   6 C  px               61     -6.938188   2 C  px        
    15      6.397405   1 C  px               97     -6.223227   3 C  s         
   189      6.223465   5 C  s               153     -5.767593   4 C  px        
 
 Vector   46  Occ=0.000000D+00  E= 1.274541D-01
              MO Center= -1.2D-02,  1.9D-01,  1.3D-04, r^2= 2.6D+01
   Bfn.  Coefficient  Atom+Function         Bfn.  Coefficient  Atom+Function  
  ----- ------------  ---------------      ----- ------------  ---------------
   154     -8.040941   4 C  py               16      7.446843   1 C  py        
   108      6.887652   3 C  py               62     -6.580546   2 C  py        
   200      6.569189   5 C  py              246     -6.387670   6 C  py        
   326     -4.057971   9 H  s                 5      3.513477   1 C  s         
   303      3.166899   8 H  s               349      3.166186  10 H  s         
 
 Vector   47  Occ=0.000000D+00  E= 1.609248D-01
              MO Center= -8.7D-03,  1.4D-01,  9.8D-05, r^2= 1.7D+01
   Bfn.  Coefficient  Atom+Function         Bfn.  Coefficient  Atom+Function  
  ----- ------------  ---------------      ----- ------------  ---------------
    17      8.201414   1 C  pz               63     -8.005246   2 C  pz        
   247     -8.005109   6 C  pz              155     -7.860122   4 C  pz        
   109      7.769846   3 C  pz              201      7.769706   5 C  pz        
    60     -1.194703   2 C  pz              106      1.194784   3 C  pz        
   198      1.194750   5 C  pz              244     -1.194673   6 C  pz        
 
 Vector   48  Occ=0.000000D+00  E= 1.659898D-01
              MO Center= -8.8D-02,  1.4D+00,  3.2D-04, r^2= 2.2D+01
   Bfn.  Coefficient  Atom+Function         Bfn.  Coefficient  Atom+Function  
  ----- ------------  ---------------      ----- ------------  ---------------
     5     59.195570   1 C  s                51    -25.970665   2 C  s         
   143     26.019212   4 C  s               235    -25.971988   6 C  s         
    97    -14.421263   3 C  s               189    -14.420906   5 C  s         
   154      7.444033   4 C  py              245      6.820874   6 C  px        
    61     -6.409278   2 C  px              326      6.169507   9 H  s         
 
 Vector   49  Occ=0.000000D+00  E= 1.754568D-01
              MO Center=  2.5D-02, -3.9D-01, -1.7D-04, r^2= 1.1D+01
   Bfn.  Coefficient  Atom+Function         Bfn.  Coefficient  Atom+Function  
  ----- ------------  ---------------      ----- ------------  ---------------
   335      1.107140   9 H  pz              312      1.080089   8 H  pz        
   358      1.080157  10 H  pz              289      0.972214   7 H  pz        
   381      0.972269  11 H  pz               17      0.965509   1 C  pz        
    63     -0.888674   2 C  pz              247     -0.888715   6 C  pz        
   106     -0.842740   3 C  pz              198     -0.842813   5 C  pz        
 
 Vector   50  Occ=0.000000D+00  E= 1.864360D-01
              MO Center=  3.4D-02, -5.4D-01,  9.5D-05, r^2= 1.5D+01
   Bfn.  Coefficient  Atom+Function         Bfn.  Coefficient  Atom+Function  
  ----- ------------  ---------------      ----- ------------  ---------------
     5     15.627977   1 C  s                97     -7.326541   3 C  s         
   189     -7.326427   5 C  s               325      4.479325   9 H  s         
    51     -4.372214   2 C  s               235     -4.372487   6 C  s         
    62     -4.115724   2 C  py              154      3.951561   4 C  py        
   246     -3.891465   6 C  py              143     -3.366067   4 C  s         
 
 Vector   51  Occ=0.000000D+00  E= 1.980384D-01
              MO Center= -2.9D-02,  4.7D-01,  3.6D-04, r^2= 2.3D+01
   Bfn.  Coefficient  Atom+Function         Bfn.  Coefficient  Atom+Function  
  ----- ------------  ---------------      ----- ------------  ---------------
    51     44.534925   2 C  s               235    -44.574681   6 C  s         
    97     25.250438   3 C  s               189    -25.239545   5 C  s         
    15     18.446333   1 C  px              153     17.159899   4 C  px        
   302    -14.009047   8 H  s               348     14.005608  10 H  s         
   200      9.268191   5 C  py              108     -8.529540   3 C  py        
 
 Vector   52  Occ=0.000000D+00  E= 1.984354D-01
              MO Center=  4.6D-02, -7.4D-01, -5.0D-04, r^2= 2.3D+01
   Bfn.  Coefficient  Atom+Function         Bfn.  Coefficient  Atom+Function  
  ----- ------------  ---------------      ----- ------------  ---------------
   143     61.335862   4 C  s                51    -34.555487   2 C  s         
   235    -34.506494   6 C  s               325    -16.847379   9 H  s         
    62     14.720796   2 C  py              246     14.452197   6 C  py        
   200     13.749619   5 C  py              108     12.550412   3 C  py        
     5    -11.578815   1 C  s               279     11.177057   7 H  s         
 
 Vector   53  Occ=0.000000D+00  E= 2.154677D-01
              MO Center=  8.7D-02, -1.4D+00, -3.7D-05, r^2= 1.5D+01
   Bfn.  Coefficient  Atom+Function         Bfn.  Coefficient  Atom+Function  
  ----- ------------  ---------------      ----- ------------  ---------------
    97     13.824025   3 C  s               189    -13.824394   5 C  s         
    96      6.510456   3 C  s               188     -6.510621   5 C  s         
   153      6.332430   4 C  px              279     -5.151700   7 H  s         
   371      5.151812  11 H  s               303      4.708993   8 H  s         
   349     -4.709382  10 H  s               246     -4.551783   6 C  py        
 
 Vector   54  Occ=0.000000D+00  E= 2.182604D-01
              MO Center=  1.8D-02, -2.8D-01, -1.8D-04, r^2= 1.5D+01
   Bfn.  Coefficient  Atom+Function         Bfn.  Coefficient  Atom+Function  
  ----- ------------  ---------------      ----- ------------  ---------------
   143     25.709804   4 C  s                51    -17.750537   2 C  s         
   235    -17.739211   6 C  s                 5     16.059720   1 C  s         
    16     -6.455941   1 C  py              325     -6.013590   9 H  s         
    62      4.828219   2 C  py              246      4.718880   6 C  py        
   279      3.753013   7 H  s               371      3.752191  11 H  s         
 
 Vector   55  Occ=0.000000D+00  E= 2.188847D-01
              MO Center=  6.0D-03, -9.7D-02,  1.0D-03, r^2= 1.5D+01
   Bfn.  Coefficient  Atom+Function         Bfn.  Coefficient  Atom+Function  
  ----- ------------  ---------------      ----- ------------  ---------------
    51     19.615398   2 C  s               235    -19.624931   6 C  s         
   108     -8.484767   3 C  py              200      8.137140   5 C  py        
    15      7.380760   1 C  px              302     -6.870163   8 H  s         
   348      6.870154  10 H  s               153      6.280824   4 C  px        
   246     -3.947907   6 C  py               62      3.815363   2 C  py        
 
 Vector   56  Occ=0.000000D+00  E= 2.301295D-01
              MO Center= -1.8D-02,  2.9D-01,  2.0D-03, r^2= 1.8D+01
   Bfn.  Coefficient  Atom+Function         Bfn.  Coefficient  Atom+Function  
  ----- ------------  ---------------      ----- ------------  ---------------
   199      4.920948   5 C  px              107      4.642011   3 C  px        
   153     -3.631957   4 C  px               50     -3.244048   2 C  s         
   234      3.244714   6 C  s               303      3.168168   8 H  s         
   349     -3.169272  10 H  s                15     -2.690468   1 C  px        
   108      2.497997   3 C  py               59      1.991192   2 C  py        
 
 Vector   57  Occ=0.000000D+00  E= 2.311693D-01
              MO Center= -1.4D-04,  2.1D-03, -3.9D-03, r^2= 1.6D+01
   Bfn.  Coefficient  Atom+Function         Bfn.  Coefficient  Atom+Function  
  ----- ------------  ---------------      ----- ------------  ---------------
   106      2.142932   3 C  pz              198     -2.142925   5 C  pz        
    60      2.049964   2 C  pz              244     -2.050014   6 C  pz        
   312     -1.816356   8 H  pz              358      1.816289  10 H  pz        
   289     -1.718717   7 H  pz              381      1.718779  11 H  pz        
   169     -1.379786   4 C  d  1             31     -1.250963   1 C  d  1      
 
 Vector   58  Occ=0.000000D+00  E= 2.354083D-01
              MO Center= -1.4D-02,  2.2D-01,  4.7D-04, r^2= 1.6D+01
   Bfn.  Coefficient  Atom+Function         Bfn.  Coefficient  Atom+Function  
  ----- ------------  ---------------      ----- ------------  ---------------
   143     15.071571   4 C  s                51    -10.544464   2 C  s         
   235    -10.568975   6 C  s               107     -8.226417   3 C  px        
   199      7.795608   5 C  px               61      5.439760   2 C  px        
   245     -5.322805   6 C  px              303     -4.435618   8 H  s         
   349     -4.431919  10 H  s                 5      4.160398   1 C  s         
 
 Vector   59  Occ=0.000000D+00  E= 2.364379D-01
              MO Center= -4.8D-03,  7.3D-02,  1.0D-03, r^2= 1.8D+01
   Bfn.  Coefficient  Atom+Function         Bfn.  Coefficient  Atom+Function  
  ----- ------------  ---------------      ----- ------------  ---------------
    97    -33.173444   3 C  s               189     33.172500   5 C  s         
    51     31.600819   2 C  s               235    -31.591449   6 C  s         
    96    -14.328744   3 C  s               188     14.331096   5 C  s         
   279     10.837695   7 H  s               371    -10.839829  11 H  s         
   302    -10.720085   8 H  s               348     10.720455  10 H  s         
 
 Vector   60  Occ=0.000000D+00  E= 2.435083D-01
              MO Center=  2.6D-03, -4.0D-02, -4.6D-04, r^2= 1.5D+01
   Bfn.  Coefficient  Atom+Function         Bfn.  Coefficient  Atom+Function  
  ----- ------------  ---------------      ----- ------------  ---------------
   152      3.412944   4 C  pz               14     -3.024820   1 C  pz        
   289      2.176055   7 H  pz              381      2.176043  11 H  pz        
   335     -2.126121   9 H  pz              261      2.003325   6 C  d  1      
    77     -1.989520   2 C  d  1             63     -1.596832   2 C  pz        
   247     -1.596926   6 C  pz              155      1.375421   4 C  pz        
 
 Vector   61  Occ=0.000000D+00  E= 2.593611D-01
              MO Center=  3.6D-02, -5.8D-01,  6.5D-05, r^2= 1.7D+01
   Bfn.  Coefficient  Atom+Function         Bfn.  Coefficient  Atom+Function  
  ----- ------------  ---------------      ----- ------------  ---------------
     5      8.389984   1 C  s               108     -6.574961   3 C  py        
   200     -5.997043   5 C  py              143     -5.130385   4 C  s         
   303     -5.103170   8 H  s               349     -5.103192  10 H  s         
   199      4.982848   5 C  px              197     -4.825661   5 C  py        
   105     -4.717239   3 C  py              107     -4.190374   3 C  px        
 
 Vector   62  Occ=0.000000D+00  E= 2.619221D-01
              MO Center=  7.0D-02, -1.1D+00, -5.2D-05, r^2= 1.7D+01
   Bfn.  Coefficient  Atom+Function         Bfn.  Coefficient  Atom+Function  
  ----- ------------  ---------------      ----- ------------  ---------------
     5     19.031385   1 C  s               154     15.427822   4 C  py        
   143     15.035648   4 C  s                51    -14.553844   2 C  s         
   235    -14.552478   6 C  s               326      9.220753   9 H  s         
     4      5.943601   1 C  s               108     -4.866341   3 C  py        
    97     -4.708901   3 C  s               189     -4.710542   5 C  s         
 
 Vector   63  Occ=0.000000D+00  E= 2.676993D-01
              MO Center= -2.7D-02,  4.3D-01,  6.9D-05, r^2= 2.0D+01
   Bfn.  Coefficient  Atom+Function         Bfn.  Coefficient  Atom+Function  
  ----- ------------  ---------------      ----- ------------  ---------------
    51     20.201771   2 C  s               235    -20.202392   6 C  s         
    97    -11.981160   3 C  s               189     11.980554   5 C  s         
    61     10.981096   2 C  px              245     10.217214   6 C  px        
   279      8.784432   7 H  s               371     -8.783824  11 H  s         
    96     -8.723690   3 C  s               188      8.723479   5 C  s         
 
 Vector   64  Occ=0.000000D+00  E= 2.749007D-01
              MO Center= -1.0D-03,  1.6D-02,  6.9D-05, r^2= 1.4D+01
   Bfn.  Coefficient  Atom+Function         Bfn.  Coefficient  Atom+Function  
  ----- ------------  ---------------      ----- ------------  ---------------
   143      9.065572   4 C  s                 5      8.901959   1 C  s         
   154      5.884874   4 C  py              279     -5.643580   7 H  s         
   371     -5.644495  11 H  s               302     -4.656633   8 H  s         
   348     -4.656982  10 H  s               325     -4.347726   9 H  s         
    16     -4.079144   1 C  py              246      3.290301   6 C  py        
 
 Vector   65  Occ=0.000000D+00  E= 2.830648D-01
              MO Center= -1.2D-02,  1.8D-01, -2.2D-05, r^2= 1.6D+01
   Bfn.  Coefficient  Atom+Function         Bfn.  Coefficient  Atom+Function  
  ----- ------------  ---------------      ----- ------------  ---------------
    12      9.519056   1 C  px               97      8.761439   3 C  s         
   189     -8.761343   5 C  s               302      8.073119   8 H  s         
   348     -8.073459  10 H  s                51     -7.852612   2 C  s         
   235      7.853074   6 C  s               199      7.548803   5 C  px        
   107      7.076011   3 C  px              150      6.205233   4 C  px        
 
 Vector   66  Occ=0.000000D+00  E= 2.953840D-01
              MO Center= -3.1D-03,  5.0D-02, -2.3D-05, r^2= 1.6D+01
   Bfn.  Coefficient  Atom+Function         Bfn.  Coefficient  Atom+Function  
  ----- ------------  ---------------      ----- ------------  ---------------
    63      3.200090   2 C  pz              109     -3.187263   3 C  pz        
   201      3.187796   5 C  pz              247     -3.200379   6 C  pz        
   289     -2.275131   7 H  pz              381      2.275098  11 H  pz        
    60      2.258390   2 C  pz              244     -2.258369   6 C  pz        
   312      2.263365   8 H  pz              358     -2.263509  10 H  pz        
 
 Vector   67  Occ=0.000000D+00  E= 2.962982D-01
              MO Center= -6.1D-02,  9.6D-01,  4.1D-04, r^2= 1.4D+01
   Bfn.  Coefficient  Atom+Function         Bfn.  Coefficient  Atom+Function  
  ----- ------------  ---------------      ----- ------------  ---------------
     4     10.445756   1 C  s                59     -5.757176   2 C  py        
   243     -5.647424   6 C  py              105     -5.544227   3 C  py        
     5      5.484538   1 C  s               197     -5.160253   5 C  py        
    16      4.305020   1 C  py              279     -4.124717   7 H  s         
   371     -4.124904  11 H  s                13      3.920767   1 C  py        
 
 Vector   68  Occ=0.000000D+00  E= 3.080779D-01
              MO Center=  1.7D-02, -2.7D-01, -4.5D-04, r^2= 1.5D+01
   Bfn.  Coefficient  Atom+Function         Bfn.  Coefficient  Atom+Function  
  ----- ------------  ---------------      ----- ------------  ---------------
   155      5.179063   4 C  pz               14      4.352573   1 C  pz        
   109     -3.742301   3 C  pz              201     -3.742103   5 C  pz        
   335     -2.701600   9 H  pz               60     -2.040681   2 C  pz        
   244     -2.040826   6 C  pz              152      1.858029   4 C  pz        
    17      1.838204   1 C  pz               29     -1.712432   1 C  d -1      
 
 Vector   69  Occ=0.000000D+00  E= 3.149920D-01
              MO Center=  4.3D-03, -6.9D-02,  1.8D-05, r^2= 9.1D+00
   Bfn.  Coefficient  Atom+Function         Bfn.  Coefficient  Atom+Function  
  ----- ------------  ---------------      ----- ------------  ---------------
   261      1.266608   6 C  d  1             77      1.146916   2 C  d  1      
   169     -1.062074   4 C  d  1             75     -1.027940   2 C  d -1      
   259      0.875794   6 C  d -1            289     -0.735201   7 H  pz        
   381      0.735190  11 H  pz               31      0.660838   1 C  d  1      
    60     -0.350677   2 C  pz              244      0.350386   6 C  pz        
 
 Vector   70  Occ=0.000000D+00  E= 3.284758D-01
              MO Center=  3.9D-02, -6.2D-01,  7.4D-05, r^2= 1.5D+01
   Bfn.  Coefficient  Atom+Function         Bfn.  Coefficient  Atom+Function  
  ----- ------------  ---------------      ----- ------------  ---------------
   142     11.970828   4 C  s                96      8.764440   3 C  s         
   188      8.764324   5 C  s               151     -6.888747   4 C  py        
   325     -5.921007   9 H  s                 4     -5.375511   1 C  s         
     5      5.008057   1 C  s               334     -5.010790   9 H  py        
   302     -4.407081   8 H  s               348     -4.407714  10 H  s         
 
 Vector   71  Occ=0.000000D+00  E= 3.347167D-01
              MO Center= -1.7D-03,  2.6D-02,  1.9D-04, r^2= 7.7D+00
   Bfn.  Coefficient  Atom+Function         Bfn.  Coefficient  Atom+Function  
  ----- ------------  ---------------      ----- ------------  ---------------
   289      2.041974   7 H  pz              381      2.041798  11 H  pz        
   335      1.814310   9 H  pz               14     -1.780448   1 C  pz        
   155     -1.742019   4 C  pz               63     -1.558086   2 C  pz        
   247     -1.558064   6 C  pz               77     -1.514456   2 C  d  1      
   261      1.412411   6 C  d  1            106     -1.259413   3 C  pz        
 
 Vector   72  Occ=0.000000D+00  E= 3.433006D-01
              MO Center=  2.5D-02, -3.9D-01, -4.4D-03, r^2= 1.2D+01
   Bfn.  Coefficient  Atom+Function         Bfn.  Coefficient  Atom+Function  
  ----- ------------  ---------------      ----- ------------  ---------------
   169      3.301488   4 C  d  1             31      2.708241   1 C  d  1      
   312     -2.476929   8 H  pz              358      2.477260  10 H  pz        
   123      2.178813   3 C  d  1            215      2.140120   5 C  d  1      
   106     -1.803395   3 C  pz              198      1.803334   5 C  pz        
   289     -1.423090   7 H  pz              381      1.423427  11 H  pz        
 
 Vector   73  Occ=0.000000D+00  E= 3.448607D-01
              MO Center= -3.6D-02,  5.7D-01, -2.1D-03, r^2= 1.2D+01
   Bfn.  Coefficient  Atom+Function         Bfn.  Coefficient  Atom+Function  
  ----- ------------  ---------------      ----- ------------  ---------------
   143     23.669773   4 C  s               325    -12.958173   9 H  s         
   279     11.846610   7 H  s               371     11.841620  11 H  s         
    51    -11.688222   2 C  s               235    -11.677232   6 C  s         
     5     -7.740220   1 C  s               197     -6.904343   5 C  py        
   105     -6.787742   3 C  py              243     -6.029992   6 C  py        
 
 Vector   74  Occ=0.000000D+00  E= 3.478786D-01
              MO Center=  9.3D-03, -1.5D-01,  4.0D-03, r^2= 1.2D+01
   Bfn.  Coefficient  Atom+Function         Bfn.  Coefficient  Atom+Function  
  ----- ------------  ---------------      ----- ------------  ---------------
    51     21.104317   2 C  s               235    -21.107042   6 C  s         
   302    -11.985002   8 H  s               348     11.982377  10 H  s         
    97     10.993711   3 C  s               189    -10.991584   5 C  s         
   279     -9.781621   7 H  s               371      9.787508  11 H  s         
    12     -8.061761   1 C  px              150     -7.014689   4 C  px        
 
 Vector   75  Occ=0.000000D+00  E= 3.482408D-01
              MO Center=  3.4D-02, -5.4D-01,  3.1D-03, r^2= 1.3D+01
   Bfn.  Coefficient  Atom+Function         Bfn.  Coefficient  Atom+Function  
  ----- ------------  ---------------      ----- ------------  ---------------
   155     -3.918271   4 C  pz               17      3.724153   1 C  pz        
   109      3.507408   3 C  pz              201      3.507346   5 C  pz        
    63     -3.391685   2 C  pz              247     -3.391574   6 C  pz        
   152     -2.981321   4 C  pz              213     -2.319113   5 C  d -1      
   289      2.258573   7 H  pz              381      2.258983  11 H  pz        
 
 Vector   76  Occ=0.000000D+00  E= 3.526842D-01
              MO Center=  3.2D-02, -5.1D-01, -2.1D-04, r^2= 1.4D+01
   Bfn.  Coefficient  Atom+Function         Bfn.  Coefficient  Atom+Function  
  ----- ------------  ---------------      ----- ------------  ---------------
    17      6.434795   1 C  pz               63     -5.893438   2 C  pz        
   247     -5.893366   6 C  pz              109      5.157579   3 C  pz        
   201      5.157542   5 C  pz              155     -4.894653   4 C  pz        
   335      3.941158   9 H  pz               14      3.817645   1 C  pz        
   167      3.053460   4 C  d -1             60     -2.684027   2 C  pz        
 
 Vector   77  Occ=0.000000D+00  E= 3.545703D-01
              MO Center= -2.0D-02,  3.1D-01, -6.7D-04, r^2= 1.5D+01
   Bfn.  Coefficient  Atom+Function         Bfn.  Coefficient  Atom+Function  
  ----- ------------  ---------------      ----- ------------  ---------------
     5     31.158191   1 C  s               143     15.737517   4 C  s         
    51    -15.526059   2 C  s               235    -15.528536   6 C  s         
   151    -10.932093   4 C  py              196     -7.461546   5 C  px        
    13      7.273883   1 C  py               50      7.285994   2 C  s         
   234      7.285311   6 C  s               104      7.020400   3 C  px        
 
 Vector   78  Occ=0.000000D+00  E= 3.599383D-01
              MO Center= -4.8D-02,  7.5D-01,  2.3D-04, r^2= 1.3D+01
   Bfn.  Coefficient  Atom+Function         Bfn.  Coefficient  Atom+Function  
  ----- ------------  ---------------      ----- ------------  ---------------
   289      3.405251   7 H  pz              381     -3.405133  11 H  pz        
    60      3.159304   2 C  pz              244     -3.159255   6 C  pz        
   121     -3.103314   3 C  d -1             77     -3.072748   2 C  d  1      
   259      3.042748   6 C  d -1            213      2.802936   5 C  d -1      
   312     -2.762972   8 H  pz              358      2.763121  10 H  pz        
 
 Vector   79  Occ=0.000000D+00  E= 3.682835D-01
              MO Center=  3.6D-02, -5.8D-01, -1.7D-04, r^2= 1.3D+01
   Bfn.  Coefficient  Atom+Function         Bfn.  Coefficient  Atom+Function  
  ----- ------------  ---------------      ----- ------------  ---------------
    96     10.662853   3 C  s               188     10.664236   5 C  s         
   104     -8.590938   3 C  px              196      8.590264   5 C  px        
   142     -7.414886   4 C  s                 5      6.734744   1 C  s         
   212      5.398635   5 C  d -2            258      5.345397   6 C  d -2      
   120     -5.238279   3 C  d -2            242     -5.090965   6 C  px        
 
 Vector   80  Occ=0.000000D+00  E= 3.722387D-01
              MO Center=  1.9D-02, -3.1D-01, -2.1D-04, r^2= 1.3D+01
   Bfn.  Coefficient  Atom+Function         Bfn.  Coefficient  Atom+Function  
  ----- ------------  ---------------      ----- ------------  ---------------
    97      9.737336   3 C  s               189     -9.738493   5 C  s         
    50      9.122072   2 C  s               234     -9.122488   6 C  s         
   279     -5.435840   7 H  s               371      5.433327  11 H  s         
   357      5.244113  10 H  py              311     -5.123292   8 H  py        
   212     -4.867470   5 C  d -2             51     -4.815696   2 C  s         
 
 Vector   81  Occ=0.000000D+00  E= 3.819116D-01
              MO Center=  3.7D-02, -5.8D-01, -3.2D-06, r^2= 1.6D+01
   Bfn.  Coefficient  Atom+Function         Bfn.  Coefficient  Atom+Function  
  ----- ------------  ---------------      ----- ------------  ---------------
   166      9.144388   4 C  d -2            333      7.140561   9 H  px        
   150     -6.720339   4 C  px              216     -6.589414   5 C  d  2      
   124      6.107827   3 C  d  2            279      5.858226   7 H  s         
   371     -5.857813  11 H  s               310      5.069751   8 H  px        
   356      5.007270  10 H  px               96     -4.790153   3 C  s         
 
 Vector   82  Occ=0.000000D+00  E= 3.933930D-01
              MO Center= -2.9D-02,  4.6D-01,  2.0D-04, r^2= 1.5D+01
   Bfn.  Coefficient  Atom+Function         Bfn.  Coefficient  Atom+Function  
  ----- ------------  ---------------      ----- ------------  ---------------
    12     12.144342   1 C  px               51    -10.893157   2 C  s         
   235     10.891120   6 C  s                78     -9.123323   2 C  d  2      
   262      8.787117   6 C  d  2             15     -6.795148   1 C  px        
   216      6.658998   5 C  d  2            153     -5.877367   4 C  px        
   124     -5.830675   3 C  d  2            379     -5.796939  11 H  px        
 
 Vector   83  Occ=0.000000D+00  E= 3.960682D-01
              MO Center= -5.2D-02,  8.3D-01,  2.2D-04, r^2= 1.2D+01
   Bfn.  Coefficient  Atom+Function         Bfn.  Coefficient  Atom+Function  
  ----- ------------  ---------------      ----- ------------  ---------------
   152     -7.540594   4 C  pz              106      7.340088   3 C  pz        
   198      7.339886   5 C  pz               60     -6.490508   2 C  pz        
   244     -6.490409   6 C  pz              167     -6.326166   4 C  d -1      
   215      5.123115   5 C  d  1            123     -4.715755   3 C  d  1      
    14      4.595613   1 C  pz              259      4.038571   6 C  d -1      
 
 Vector   84  Occ=0.000000D+00  E= 4.016975D-01
              MO Center= -3.5D-02,  5.5D-01, -7.1D-04, r^2= 1.5D+01
   Bfn.  Coefficient  Atom+Function         Bfn.  Coefficient  Atom+Function  
  ----- ------------  ---------------      ----- ------------  ---------------
     5     52.733490   1 C  s                51    -20.175637   2 C  s         
   235    -20.181885   6 C  s                97    -17.598743   3 C  s         
   189    -17.599910   5 C  s               143     12.262034   4 C  s         
   142    -10.215449   4 C  s                 4     -9.969210   1 C  s         
    50     -8.030353   2 C  s               234     -8.028873   6 C  s         
 
 Vector   85  Occ=0.000000D+00  E= 4.054097D-01
              MO Center= -4.3D-03,  6.8D-02, -8.3D-05, r^2= 1.3D+01
   Bfn.  Coefficient  Atom+Function         Bfn.  Coefficient  Atom+Function  
  ----- ------------  ---------------      ----- ------------  ---------------
     5     32.430579   1 C  s               143     17.159052   4 C  s         
    51    -12.259439   2 C  s               235    -12.258739   6 C  s         
    96      9.745266   3 C  s               188      9.745274   5 C  s         
    97     -7.067445   3 C  s               189     -7.067032   5 C  s         
   262      6.832611   6 C  d  2             78      6.652434   2 C  d  2      
 
 Vector   86  Occ=0.000000D+00  E= 4.130719D-01
[...]
     Occ.   21 alpha a   ---  Virt.   38 alpha a    0.12139 X
     Occ.   15 beta  a   ---  Virt.   21 beta  a   -0.08680 X
     Occ.   19 beta  a   ---  Virt.   24 beta  a   -0.19280 X
     Occ.   20 beta  a   ---  Virt.   22 beta  a    0.12407 X
  ----------------------------------------------------------------------------
  Root  27         a              0.251791286 a.u.                6.8516 eV 
  <S2> =   1.6634
  ----------------------------------------------------------------------------
     Transition Moments    X -0.00003   Y -0.00000   Z -0.24314
     Transition Moments   XX -0.00004  XY  0.00004  XZ  0.01043
     Transition Moments   YY -0.00013  YZ -0.16744  ZZ -0.00003
     Dipole Oscillator Strength                    0.0099236663
     Electric Quadrupole                           0.0000000024
     Magnetic Dipole                               0.0000000310
     Total Oscillator Strength                     0.0099236997
 
     Occ.   19 alpha a   ---  Virt.   26 alpha a   -0.98121 X
     Occ.   19 alpha a   ---  Virt.   35 alpha a    0.07111 X
     Occ.   19 alpha a   ---  Virt.   36 alpha a    0.07357 X
     Occ.   20 alpha a   ---  Virt.   25 alpha a   -0.12304 X
  ----------------------------------------------------------------------------
  Root  28         a              0.252793124 a.u.                6.8789 eV 
  <S2> =   1.8955
  ----------------------------------------------------------------------------
     Transition Moments    X -0.00002   Y -0.00001   Z  0.00005
     Transition Moments   XX -0.00001  XY  0.00003  XZ -0.39153
     Transition Moments   YY -0.00007  YZ -0.02464  ZZ -0.00002
     Dipole Oscillator Strength                    0.0000000005
     Electric Quadrupole                           0.0000000132
     Magnetic Dipole                               0.0000000096
     Total Oscillator Strength                     0.0000000234
 
     Occ.   19 alpha a   ---  Virt.   25 alpha a    0.22944 X
     Occ.   20 alpha a   ---  Virt.   26 alpha a    0.96450 X
     Occ.   20 alpha a   ---  Virt.   35 alpha a   -0.06201 X
     Occ.   20 alpha a   ---  Virt.   36 alpha a   -0.06588 X
     Occ.   19 beta  a   ---  Virt.   26 beta  a   -0.06810 X
  ----------------------------------------------------------------------------
  Root  29         a              0.254133038 a.u.                6.9153 eV 
  <S2> =   1.6120
  ----------------------------------------------------------------------------
     Transition Moments    X -0.00008   Y  0.00003   Z -0.00001
     Transition Moments   XX  0.00004  XY -0.00005  XZ  0.49425
     Transition Moments   YY  0.00015  YZ  0.03113  ZZ  0.00003
     Dipole Oscillator Strength                    0.0000000012
     Electric Quadrupole                           0.0000000214
     Magnetic Dipole                               0.0000000109
     Total Oscillator Strength                     0.0000000336
 
     Occ.   20 alpha a   ---  Virt.   26 alpha a   -0.07241 X
     Occ.   19 beta  a   ---  Virt.   26 beta  a   -0.98520 X
     Occ.   19 beta  a   ---  Virt.   35 beta  a    0.05785 X
     Occ.   19 beta  a   ---  Virt.   36 beta  a    0.07410 X
     Occ.   20 beta  a   ---  Virt.   25 beta  a   -0.09431 X
  ----------------------------------------------------------------------------
  Root  30         a              0.254773654 a.u.                6.9327 eV 
  <S2> =   0.7690
  ----------------------------------------------------------------------------
     Transition Moments    X -1.53427   Y -0.09564   Z  0.00002
     Transition Moments   XX -0.01911  XY  0.15885  XZ -0.00004
     Transition Moments   YY  0.02262  YZ  0.00002  ZZ  0.00022
     Dipole Oscillator Strength                    0.4013746941
     Electric Quadrupole                           0.0000000023
     Magnetic Dipole                               0.0000000087
     Total Oscillator Strength                     0.4013747051
 
     Occ.   19 alpha a   ---  Virt.   22 alpha a   -0.38693 X
     Occ.   19 alpha a   ---  Virt.   22 alpha a    0.05438 Y
     Occ.   20 alpha a   ---  Virt.   23 alpha a    0.43890 X
     Occ.   20 alpha a   ---  Virt.   23 alpha a   -0.05221 Y
     Occ.   20 alpha a   ---  Virt.   29 alpha a   -0.14370 X
     Occ.   21 alpha a   ---  Virt.   25 alpha a    0.07064 X
     Occ.   21 alpha a   ---  Virt.   27 alpha a   -0.33798 X
     Occ.   13 beta  a   ---  Virt.   21 beta  a    0.12887 X
     Occ.   15 beta  a   ---  Virt.   21 beta  a    0.27430 X
     Occ.   19 beta  a   ---  Virt.   24 beta  a    0.51172 X
     Occ.   19 beta  a   ---  Virt.   29 beta  a   -0.14203 X
     Occ.   20 beta  a   ---  Virt.   22 beta  a   -0.35480 X
     Occ.   20 beta  a   ---  Virt.   22 beta  a    0.05740 Y
  ----------------------------------------------------------------------------
  Root  31         a              0.254927726 a.u.                6.9369 eV 
  <S2> =   0.7999
  ----------------------------------------------------------------------------
     Transition Moments    X -0.03709   Y  0.62329   Z  0.00000
     Transition Moments   XX  0.65613  XY -0.07812  XZ -0.00003
     Transition Moments   YY  1.88822  YZ  0.00003  ZZ  0.14951
     Dipole Oscillator Strength                    0.0662586066
     Electric Quadrupole                           0.0000000711
     Magnetic Dipole                               0.0000000000
     Total Oscillator Strength                     0.0662586777
 
     Occ.   19 alpha a   ---  Virt.   23 alpha a   -0.10106 X
     Occ.   20 alpha a   ---  Virt.   22 alpha a   -0.11278 X
     Occ.   21 alpha a   ---  Virt.   26 alpha a   -0.18345 X
     Occ.   21 alpha a   ---  Virt.   28 alpha a    0.91274 X
     Occ.   21 alpha a   ---  Virt.   30 alpha a    0.12776 X
     Occ.   21 alpha a   ---  Virt.   31 alpha a    0.16293 X
     Occ.   21 alpha a   ---  Virt.   48 alpha a   -0.05640 X
     Occ.   16 beta  a   ---  Virt.   21 beta  a   -0.18398 X
     Occ.   19 beta  a   ---  Virt.   22 beta  a   -0.10747 X
     Occ.   20 beta  a   ---  Virt.   24 beta  a   -0.09175 X
  ----------------------------------------------------------------------------
  Root  32         a              0.260236320 a.u.                7.0814 eV 
  <S2> =   0.7990
  ----------------------------------------------------------------------------
     Transition Moments    X  0.00001   Y -0.00001   Z  0.09545
     Transition Moments   XX -0.00001  XY -0.00001  XZ -0.04449
     Transition Moments   YY -0.00003  YZ  0.70599  ZZ  0.00000
     Dipole Oscillator Strength                    0.0015807680
     Electric Quadrupole                           0.0000000470
     Magnetic Dipole                               0.0000000335
     Total Oscillator Strength                     0.0015808484
 
     Occ.   21 alpha a   ---  Virt.   29 alpha a   -0.97945 X
     Occ.   21 alpha a   ---  Virt.   33 alpha a   -0.17976 X
  ----------------------------------------------------------------------------
  Root  33         a              0.265246388 a.u.                7.2177 eV 
  <S2> =   1.7804
  ----------------------------------------------------------------------------
     Transition Moments    X -0.00001   Y -0.00001   Z  0.00000
     Transition Moments   XX  0.00006  XY -0.00002  XZ -0.54577
     Transition Moments   YY  0.00003  YZ -0.03439  ZZ  0.00004
     Dipole Oscillator Strength                    0.0000000000
     Electric Quadrupole                           0.0000000297
     Magnetic Dipole                               0.0000000005
     Total Oscillator Strength                     0.0000000303
 
     Occ.   20 beta  a   ---  Virt.   27 beta  a   -0.99107 X
     Occ.   20 beta  a   ---  Virt.   38 beta  a    0.09646 X
  ----------------------------------------------------------------------------
  Root  34         a              0.266937905 a.u.                7.2638 eV 
  <S2> =   0.8180
  ----------------------------------------------------------------------------
     Transition Moments    X -0.07418   Y  1.17962   Z -0.00000
     Transition Moments   XX  0.02643  XY  0.04580  XZ -0.00001
     Transition Moments   YY -0.69811  YZ -0.00005  ZZ -0.03523
     Dipole Oscillator Strength                    0.2486101448
     Electric Quadrupole                           0.0000000166
     Magnetic Dipole                               0.0000000000
     Total Oscillator Strength                     0.2486101613
 
     Occ.   17 alpha a   ---  Virt.   23 alpha a    0.08247 X
     Occ.   19 alpha a   ---  Virt.   23 alpha a   -0.30002 X
     Occ.   19 alpha a   ---  Virt.   29 alpha a   -0.15915 X
     Occ.   20 alpha a   ---  Virt.   22 alpha a   -0.22165 X
     Occ.   21 alpha a   ---  Virt.   28 alpha a   -0.29198 X
     Occ.   21 alpha a   ---  Virt.   30 alpha a    0.45974 X
     Occ.   21 alpha a   ---  Virt.   31 alpha a   -0.08614 X
     Occ.   14 beta  a   ---  Virt.   21 beta  a    0.08468 X
     Occ.   16 beta  a   ---  Virt.   21 beta  a   -0.49548 X
     Occ.   19 beta  a   ---  Virt.   22 beta  a   -0.22189 X
     Occ.   20 beta  a   ---  Virt.   24 beta  a   -0.30178 X
     Occ.   20 beta  a   ---  Virt.   29 beta  a   -0.33276 X
  ----------------------------------------------------------------------------
  Root  35         a              0.270976649 a.u.                7.3737 eV 
  <S2> =   2.7176
  ----------------------------------------------------------------------------
     Transition Moments    X -0.00001   Y -0.00001   Z -0.00962
     Transition Moments   XX  0.00001  XY -0.00000  XZ  0.00867
     Transition Moments   YY  0.00002  YZ -0.13860  ZZ -0.00000
     Dipole Oscillator Strength                    0.0000167011
     Electric Quadrupole                           0.0000000020
     Magnetic Dipole                               0.0000000000
     Total Oscillator Strength                     0.0000167031
 
     Occ.   19 alpha a   ---  Virt.   28 alpha a    0.05251 X
     Occ.   20 alpha a   ---  Virt.   27 alpha a    0.78165 X
     Occ.   20 alpha a   ---  Virt.   38 alpha a   -0.08671 X
     Occ.   19 beta  a   ---  Virt.   27 beta  a   -0.59525 X
     Occ.   19 beta  a   ---  Virt.   38 beta  a    0.06990 X
     Occ.   20 beta  a   ---  Virt.   28 beta  a   -0.06805 X
     Occ.   20 beta  a   ---  Virt.   30 beta  a   -0.06437 X
  ----------------------------------------------------------------------------
  Root  36         a              0.271247497 a.u.                7.3810 eV 
  <S2> =   2.7415
  ----------------------------------------------------------------------------
     Transition Moments    X  0.04634   Y  0.00347   Z -0.00000
     Transition Moments   XX  0.00250  XY -0.02847  XZ  0.00001
     Transition Moments   YY -0.00282  YZ -0.00004  ZZ -0.00025
     Dipole Oscillator Strength                    0.0003905081
     Electric Quadrupole                           0.0000000001
     Magnetic Dipole                               0.0000000017
     Total Oscillator Strength                     0.0003905099
 
     Occ.   17 alpha a   ---  Virt.   22 alpha a    0.59907 X
     Occ.   17 alpha a   ---  Virt.   41 alpha a   -0.05243 X
     Occ.   19 alpha a   ---  Virt.   32 alpha a   -0.08417 X
     Occ.   20 alpha a   ---  Virt.   29 alpha a    0.15738 X
     Occ.   20 alpha a   ---  Virt.   44 alpha a   -0.22710 X
     Occ.   20 alpha a   ---  Virt.   47 alpha a    0.17375 X
     Occ.   17 beta  a   ---  Virt.   22 beta  a   -0.64535 X
     Occ.   17 beta  a   ---  Virt.   41 beta  a    0.05436 X
     Occ.   19 beta  a   ---  Virt.   29 beta  a   -0.10240 X
     Occ.   19 beta  a   ---  Virt.   44 beta  a    0.20058 X
     Occ.   19 beta  a   ---  Virt.   47 beta  a   -0.16658 X
     Occ.   20 beta  a   ---  Virt.   31 beta  a    0.10240 X
  ----------------------------------------------------------------------------
  Root  37         a              0.271356217 a.u.                7.3840 eV 
  <S2> =   1.0139
  ----------------------------------------------------------------------------
     Transition Moments    X -0.03642   Y  0.57785   Z -0.00000
     Transition Moments   XX -1.08250  XY -0.11596  XZ  0.00001
     Transition Moments   YY  0.75120  YZ -0.00006  ZZ -0.24421
     Dipole Oscillator Strength                    0.0606464084
     Electric Quadrupole                           0.0000000911
     Magnetic Dipole                               0.0000000000
     Total Oscillator Strength                     0.0606464995
 
     Occ.   17 alpha a   ---  Virt.   23 alpha a    0.06763 X
     Occ.   19 alpha a   ---  Virt.   23 alpha a   -0.10975 X
     Occ.   20 alpha a   ---  Virt.   22 alpha a   -0.05585 X
     Occ.   21 alpha a   ---  Virt.   30 alpha a   -0.79227 X
     Occ.   21 alpha a   ---  Virt.   31 alpha a    0.20951 X
     Occ.   21 alpha a   ---  Virt.   35 alpha a   -0.07711 X
     Occ.   21 alpha a   ---  Virt.   40 alpha a    0.05639 X
     Occ.   14 beta  a   ---  Virt.   21 beta  a    0.06887 X
     Occ.   16 beta  a   ---  Virt.   21 beta  a   -0.21792 X
     Occ.   19 beta  a   ---  Virt.   22 beta  a   -0.07176 X
     Occ.   20 beta  a   ---  Virt.   24 beta  a   -0.11402 X
     Occ.   20 beta  a   ---  Virt.   29 beta  a   -0.46480 X
  ----------------------------------------------------------------------------
  Root  38         a              0.271956500 a.u.                7.4003 eV 
  <S2> =   0.8628
  ----------------------------------------------------------------------------
     Transition Moments    X -0.00001   Y  0.00001   Z -0.02913
     Transition Moments   XX -0.00002  XY -0.00006  XZ  0.05717
     Transition Moments   YY  0.00007  YZ -0.91488  ZZ -0.00002
     Dipole Oscillator Strength                    0.0001538587
     Electric Quadrupole                           0.0000000900
     Magnetic Dipole                               0.0000000030
     Total Oscillator Strength                     0.0001539517
 
     Occ.   20 alpha a   ---  Virt.   27 alpha a    0.57357 X
     Occ.   19 beta  a   ---  Virt.   27 beta  a    0.77773 X
     Occ.   19 beta  a   ---  Virt.   38 beta  a   -0.07307 X
     Occ.   20 beta  a   ---  Virt.   28 beta  a   -0.22780 X
  ----------------------------------------------------------------------------
  Root  39         a              0.272099003 a.u.                7.4042 eV 
  <S2> =   1.7258
  ----------------------------------------------------------------------------
     Transition Moments    X -0.00001   Y  0.00000   Z  0.00004
     Transition Moments   XX  0.00006  XY -0.00002  XZ -0.54870
     Transition Moments   YY  0.00001  YZ -0.03363  ZZ  0.00003
     Dipole Oscillator Strength                    0.0000000004
     Electric Quadrupole                           0.0000000324
     Magnetic Dipole                               0.0000000012
     Total Oscillator Strength                     0.0000000340
 
     Occ.   19 alpha a   ---  Virt.   27 alpha a   -0.99056 X
     Occ.   19 alpha a   ---  Virt.   38 alpha a    0.09586 X
  ----------------------------------------------------------------------------
  Root  40         a              0.272353355 a.u.                7.4111 eV 
  <S2> =   1.9156
  ----------------------------------------------------------------------------
     Transition Moments    X -0.00001   Y  0.00003   Z  0.03836
     Transition Moments   XX  0.00003  XY  0.00002  XZ -0.02156
     Transition Moments   YY  0.00006  YZ  0.34524  ZZ  0.00001
     Dipole Oscillator Strength                    0.0002672452
     Electric Quadrupole                           0.0000000129
     Magnetic Dipole                               0.0000000060
     Total Oscillator Strength                     0.0002672641
 
     Occ.   19 alpha a   ---  Virt.   28 alpha a   -0.11518 X
     Occ.   20 alpha a   ---  Virt.   27 alpha a    0.20036 X
     Occ.   17 beta  a   ---  Virt.   21 beta  a   -0.05467 X
     Occ.   19 beta  a   ---  Virt.   27 beta  a    0.13720 X
     Occ.   20 beta  a   ---  Virt.   28 beta  a    0.95003 X
     Occ.   20 beta  a   ---  Virt.   30 beta  a    0.05652 X
     Occ.   20 beta  a   ---  Virt.   32 beta  a    0.07290 X
     Occ.   20 beta  a   ---  Virt.   43 beta  a    0.07876 X
 
              Target root =      1
          Target symmetry = none
      Ground state energy =   -231.646316589818
        Excitation energy =      0.106342640279
     Excited state energy =   -231.539973949538
 
  stored tddft:energy   -231.539973949538     

 Task  times  cpu:     2840.8s     wall:     2960.9s
 
 
                                NWChem Input Module
                                -------------------
 
 
 Summary of allocated global arrays
-----------------------------------
  No active global arrays



                         GA Statistics for process    0
                         ------------------------------

       create   destroy   get      put      acc     scatter   gather  read&inc
calls: 9512     9512     1.15e+07 4.28e+06 4.58e+06 5640        0      307     
number of processes/call 1.28e+00 1.71e+00 1.95e+00 0.00e+00 0.00e+00
bytes total:             1.02e+11 1.16e+10 1.18e+11 6.26e+04 0.00e+00 2.46e+03
bytes remote:            7.65e+10 1.09e+09 1.13e+11 0.00e+00 0.00e+00 0.00e+00
Max memory consumed for GA by this process: 205086464 bytes
 
MA_summarize_allocated_blocks: starting scan ...
MA_summarize_allocated_blocks: scan completed: 0 heap blocks, 0 stack blocks
MA usage statistics:

	allocation statistics:
					      heap	     stack
					      ----	     -----
	current number of blocks	         0	         0
	maximum number of blocks	        20	        52
	current total bytes		         0	         0
	maximum total bytes		   1166000	  68276408
	maximum total K-bytes		      1166	     68277
	maximum total M-bytes		         2	        69
 
 
                                     CITATION
                                     --------
                Please cite the following reference when publishing
                           results obtained with NWChem:
 
                 M. Valiev, E.J. Bylaska, N. Govind, K. Kowalski,
              T.P. Straatsma, H.J.J. van Dam, D. Wang, J. Nieplocha,
                        E. Apra, T.L. Windus, W.A. de Jong
                 "NWChem: a comprehensive and scalable open-source
                  solution for large scale molecular simulations"
                      Comput. Phys. Commun. 181, 1477 (2010)
                           doi:10.1016/j.cpc.2010.04.018
 
                                      AUTHORS
                                      -------
          E. Apra, E. J. Bylaska, W. A. de Jong, N. Govind, K. Kowalski,
       T. P. Straatsma, M. Valiev, H. J. J. van Dam, D. Wang, T. L. Windus,
        J. Hammond, J. Autschbach, K. Bhaskaran-Nair, J. Brabec, K. Lopata,
    S. A. Fischer, S. Krishnamoorthy, M. Jacquelin, W. Ma, M. Klemm, O. Villa,
      Y. Chen, V. Anisimov, F. Aquino, S. Hirata, M. T. Hackler, V. Konjkov,
            D. Mejia-Rodriguez, T. Risthaus, M. Malagoli, A. Marenich,
   A. Otero-de-la-Roza, J. Mullin, P. Nichols, R. Peverati, J. Pittner, Y. Zhao,
        P.-D. Fan, A. Fonari, M. J. Williamson, R. J. Harrison, J. R. Rehr,
      M. Dupuis, D. Silverstein, D. M. A. Smith, J. Nieplocha, V. Tipparaju,
    M. Krishnan, B. E. Van Kuiken, A. Vazquez-Mayagoitia, L. Jensen, M. Swart,
      Q. Wu, T. Van Voorhis, A. A. Auer, M. Nooijen, L. D. Crosby, E. Brown,
      G. Cisneros, G. I. Fann, H. Fruchtl, J. Garza, K. Hirao, R. A. Kendall,
      J. A. Nichols, K. Tsemekhman, K. Wolinski, J. Anchell, D. E. Bernholdt,
      P. Borowski, T. Clark, D. Clerc, H. Dachsel, M. J. O. Deegan, K. Dyall,
    D. Elwood, E. Glendening, M. Gutowski, A. C. Hess, J. Jaffe, B. G. Johnson,
     J. Ju, R. Kobayashi, R. Kutteh, Z. Lin, R. Littlefield, X. Long, B. Meng,
      T. Nakajima, S. Niu, L. Pollack, M. Rosing, K. Glaesemann, G. Sandrone,
      M. Stave, H. Taylor, G. Thomas, J. H. van Lenthe, A. T. Wong, Z. Zhang.

 Total times  cpu:     2840.9s     wall:     2961.0s
