 argument  1 = /storage/home/j/jbb5516/normalModes/mode598.92-m.nw
 


============================== echo of input deck ==============================
echo
start

title "None"

geometry
C    -0.08828409    1.38825271    0.00000005
C    -1.26867079    0.69227820   -0.00000002
C    -1.16613422   -0.70340355   -0.00000002
C     0.08375399   -1.31593617    0.00000004
C     1.24791245   -0.55376135   -0.00000001
C     1.16942624    0.84341398    0.00000005
H    -2.23367844    1.18108169   -0.00000010
H    -2.06579254   -1.30549356   -0.00000009
H     0.14973162   -2.39544931    0.00000000
H     2.21680761   -1.03653584   -0.00000013
H     2.06426882    1.45129362   -0.00000010
symmetry c1
end

basis spherical
 * library "aug-cc-pvtz"
end

dft
 direct
 mult 2
 iterations 500
 xc b3lyp
end

tddft
 nroots 40
 notriplet
 algorithm 1
end
task tddft energy
================================================================================


                                         
                                         
 
 
              Northwest Computational Chemistry Package (NWChem) 6.8
              ------------------------------------------------------
 
 
                    Environmental Molecular Sciences Laboratory
                       Pacific Northwest National Laboratory
                                Richland, WA 99352
 
                              Copyright (c) 1994-2017
                       Pacific Northwest National Laboratory
                            Battelle Memorial Institute
 
             NWChem is an open-source computational chemistry package
                        distributed under the terms of the
                      Educational Community License (ECL) 2.0
             A copy of the license is included with this distribution
                              in the LICENSE.TXT file
 
                                  ACKNOWLEDGMENT
                                  --------------

            This software and its documentation were developed at the
            EMSL at Pacific Northwest National Laboratory, a multiprogram
            national laboratory, operated for the U.S. Department of Energy
            by Battelle under Contract Number DE-AC05-76RL01830. Support
            for this work was provided by the Department of Energy Office
            of Biological and Environmental Research, Office of Basic
            Energy Sciences, and the Office of Advanced Scientific Computing.


           Job information
           ---------------

    hostname        = comp-sc-0201.acib.production.int.aci.ics.psu.edu
    program         = /gpfs/group/lxj18/default/jeffprograms/nwchem-6.8.1/bin/LINUX64/nwchem
    date            = Sun Sep 20 18:24:07 2020

    compiled        = Wed_Oct_03_14:08:39_2018
    source          = /gpfs/group/lxj18/default/jeffprograms/nwchem-6.8.1
    nwchem branch   = 6.8.1
    nwchem revision = v6.8-143-gdb0d964
    ga revision     = 5.6.5
    use scalapack   = F
    input           = /storage/home/j/jbb5516/normalModes/mode598.92-m.nw
    prefix          = mode598.92-m.
    data base       = ./mode598.92-m.db
    status          = startup
    nproc           =       20
    time left       =     -1s



           Memory information
           ------------------

    heap     =   13107198 doubles =    100.0 Mbytes
    stack    =   13107195 doubles =    100.0 Mbytes
    global   =   26214400 doubles =    200.0 Mbytes (distinct from heap & stack)
    total    =   52428793 doubles =    400.0 Mbytes
    verify   = yes
    hardfail = no 


           Directory information
           ---------------------
 
  0 permanent = .
  0 scratch   = .
 
 
 
 
                                NWChem Input Module
                                -------------------
 
 
                                       None
                                       ----

 Scaling coordinates for geometry "geometry" by  1.889725989
 (inverse scale =  0.529177249)

 Turning off AUTOSYM since
 SYMMETRY directive was detected!
 

          ------
          auto-z
          ------
 
 
                             Geometry "geometry" -> ""
                             -------------------------
 
 Output coordinates in angstroms (scale by  1.889725989 to convert to a.u.)
 
  No.       Tag          Charge          X              Y              Z
 ---- ---------------- ---------- -------------- -------------- --------------
    1 C                    6.0000    -0.08826844     1.38825370     0.00000005
    2 C                    6.0000    -1.26865514     0.69227919    -0.00000002
    3 C                    6.0000    -1.16611857    -0.70340256    -0.00000002
    4 C                    6.0000     0.08376964    -1.31593518     0.00000004
    5 C                    6.0000     1.24792810    -0.55376036    -0.00000001
    6 C                    6.0000     1.16944189     0.84341497     0.00000005
    7 H                    1.0000    -2.23366279     1.18108268    -0.00000010
    8 H                    1.0000    -2.06577689    -1.30549257    -0.00000009
    9 H                    1.0000     0.14974727    -2.39544832    -0.00000000
   10 H                    1.0000     2.21682326    -1.03653485    -0.00000013
   11 H                    1.0000     2.06428447     1.45129461    -0.00000010
 
      Atomic Mass 
      ----------- 
 
      C                 12.000000
      H                  1.007825
 

 Effective nuclear repulsion energy (a.u.)     195.0639657990

            Nuclear Dipole moment (a.u.) 
            ----------------------------
        X                 Y               Z
 ---------------- ---------------- ----------------
     0.0000000000     0.0000000000     0.0000000000
 


                                Z-matrix (autoz)
                                -------- 

 Units are Angstrom for bonds and degrees for angles
 
      Type          Name      I     J     K     L     M      Value
      ----------- --------  ----- ----- ----- ----- ----- ----------
    1 Stretch                  1     2                       1.37029
    2 Stretch                  1     6                       1.37065
    3 Stretch                  2     3                       1.39944
    4 Stretch                  2     7                       1.08174
    5 Stretch                  3     4                       1.39191
    6 Stretch                  3     8                       1.08254
    7 Stretch                  4     5                       1.39147
    8 Stretch                  4     9                       1.08153
    9 Stretch                  5     6                       1.39938
   10 Stretch                  5    10                       1.08251
   11 Stretch                  6    11                       1.08179
   12 Bend                     1     2     3               116.32247
   13 Bend                     1     2     7               122.61224
   14 Bend                     1     6     5               116.63741
   15 Bend                     1     6    11               122.38895
   16 Bend                     2     1     6               126.05352
   17 Bend                     2     3     4               120.30989
   18 Bend                     2     3     8               119.59034
   19 Bend                     3     2     7               121.06530
   20 Bend                     3     4     5               120.67914
   21 Bend                     3     4     9               119.60553
   22 Bend                     4     3     8               120.09978
   23 Bend                     4     5     6               119.99757
   24 Bend                     4     5    10               120.30138
   25 Bend                     5     4     9               119.71533
   26 Bend                     5     6    11               120.97363
   27 Bend                     6     5    10               119.70105
   28 Torsion                  1     2     3     4           0.00000
   29 Torsion                  1     2     3     8        -180.00000
   30 Torsion                  1     6     5     4           0.00000
   31 Torsion                  1     6     5    10         180.00000
   32 Torsion                  2     1     6     5           0.00000
   33 Torsion                  2     1     6    11         180.00000
   34 Torsion                  2     3     4     5           0.00000
   35 Torsion                  2     3     4     9        -180.00000
   36 Torsion                  3     2     1     6           0.00000
   37 Torsion                  3     4     5     6           0.00000
   38 Torsion                  3     4     5    10        -180.00000
   39 Torsion                  4     3     2     7         180.00000
   40 Torsion                  4     5     6    11        -180.00000
   41 Torsion                  5     4     3     8         180.00000
   42 Torsion                  6     1     2     7        -180.00000
   43 Torsion                  6     5     4     9        -180.00000
   44 Torsion                  7     2     3     8           0.00000
   45 Torsion                  8     3     4     9           0.00000
   46 Torsion                  9     4     5    10           0.00000
   47 Torsion                 10     5     6    11           0.00000
 
 
            XYZ format geometry
            -------------------
    11
 geometry
 C                    -0.08826844     1.38825370     0.00000005
 C                    -1.26865514     0.69227919    -0.00000002
 C                    -1.16611857    -0.70340256    -0.00000002
 C                     0.08376964    -1.31593518     0.00000004
 C                     1.24792810    -0.55376036    -0.00000001
 C                     1.16944189     0.84341497     0.00000005
 H                    -2.23366279     1.18108268    -0.00000010
 H                    -2.06577689    -1.30549257    -0.00000009
 H                     0.14974727    -2.39544832    -0.00000000
 H                     2.21682326    -1.03653485    -0.00000013
 H                     2.06428447     1.45129461    -0.00000010
 
 ==============================================================================
                                internuclear distances
 ------------------------------------------------------------------------------
       center one      |      center two      | atomic units |  angstroms
 ------------------------------------------------------------------------------
    2 C                |   1 C                |     2.58947  |     1.37029
    3 C                |   2 C                |     2.64456  |     1.39944
    4 C                |   3 C                |     2.63033  |     1.39191
    5 C                |   4 C                |     2.62949  |     1.39147
    6 C                |   1 C                |     2.59016  |     1.37065
    6 C                |   5 C                |     2.64444  |     1.39938
    7 H                |   2 C                |     2.04420  |     1.08174
    8 H                |   3 C                |     2.04571  |     1.08254
    9 H                |   4 C                |     2.04379  |     1.08153
   10 H                |   5 C                |     2.04565  |     1.08251
   11 H                |   6 C                |     2.04428  |     1.08179
 ------------------------------------------------------------------------------
                         number of included internuclear distances:         11
 ==============================================================================



 ==============================================================================
                                 internuclear angles
 ------------------------------------------------------------------------------
        center 1       |       center 2       |       center 3       |  degrees
 ------------------------------------------------------------------------------
    2 C                |   1 C                |   6 C                |   126.05
    1 C                |   2 C                |   3 C                |   116.32
    1 C                |   2 C                |   7 H                |   122.61
    3 C                |   2 C                |   7 H                |   121.07
    2 C                |   3 C                |   4 C                |   120.31
    2 C                |   3 C                |   8 H                |   119.59
    4 C                |   3 C                |   8 H                |   120.10
    3 C                |   4 C                |   5 C                |   120.68
    3 C                |   4 C                |   9 H                |   119.61
    5 C                |   4 C                |   9 H                |   119.72
    4 C                |   5 C                |   6 C                |   120.00
    4 C                |   5 C                |  10 H                |   120.30
    6 C                |   5 C                |  10 H                |   119.70
    1 C                |   6 C                |   5 C                |   116.64
    1 C                |   6 C                |  11 H                |   122.39
    5 C                |   6 C                |  11 H                |   120.97
 ------------------------------------------------------------------------------
                            number of included internuclear angles:         16
 ==============================================================================





 Summary of "ao basis" -> "" (spherical)
 ------------------------------------------------------------------------------
       Tag                 Description            Shells   Functions and Types
 ---------------- ------------------------------  ------  ---------------------
 *                        aug-cc-pvtz                 on all atoms 


 
                                 NWChem DFT Module
                                 -----------------
 
 
                                       None
 
 
                      Basis "ao basis" -> "ao basis" (spherical)
                      -----
  C (Carbon)
  ----------
            Exponent  Coefficients 
       -------------- ---------------------------------------------------------
  1 S  8.23600000E+03  0.000531
  1 S  1.23500000E+03  0.004108
  1 S  2.80800000E+02  0.021087
  1 S  7.92700000E+01  0.081853
  1 S  2.55900000E+01  0.234817
  1 S  8.99700000E+00  0.434401
  1 S  3.31900000E+00  0.346129
  1 S  3.64300000E-01 -0.008983
 
  2 S  8.23600000E+03 -0.000113
  2 S  1.23500000E+03 -0.000878
  2 S  2.80800000E+02 -0.004540
  2 S  7.92700000E+01 -0.018133
  2 S  2.55900000E+01 -0.055760
  2 S  8.99700000E+00 -0.126895
  2 S  3.31900000E+00 -0.170352
  2 S  3.64300000E-01  0.598684
 
  3 S  9.05900000E-01  1.000000
 
  4 S  1.28500000E-01  1.000000
 
  5 S  4.40200000E-02  1.000000
 
  6 P  1.87100000E+01  0.014031
  6 P  4.13300000E+00  0.086866
  6 P  1.20000000E+00  0.290216
 
  7 P  3.82700000E-01  1.000000
 
  8 P  1.20900000E-01  1.000000
 
  9 P  3.56900000E-02  1.000000
 
 10 D  1.09700000E+00  1.000000
 
 11 D  3.18000000E-01  1.000000
 
 12 D  1.00000000E-01  1.000000
 
 13 F  7.61000000E-01  1.000000
 
 14 F  2.68000000E-01  1.000000
 
  H (Hydrogen)
  ------------
            Exponent  Coefficients 
       -------------- ---------------------------------------------------------
  1 S  3.38700000E+01  0.006068
  1 S  5.09500000E+00  0.045308
  1 S  1.15900000E+00  0.202822
 
  2 S  3.25800000E-01  1.000000
 
  3 S  1.02700000E-01  1.000000
 
  4 S  2.52600000E-02  1.000000
 
  5 P  1.40700000E+00  1.000000
 
  6 P  3.88000000E-01  1.000000
 
  7 P  1.02000000E-01  1.000000
 
  8 D  1.05700000E+00  1.000000
 
  9 D  2.47000000E-01  1.000000
 


 Summary of "ao basis" -> "ao basis" (spherical)
 ------------------------------------------------------------------------------
       Tag                 Description            Shells   Functions and Types
 ---------------- ------------------------------  ------  ---------------------
 C                        aug-cc-pvtz               14       46   5s4p3d2f
 H                        aug-cc-pvtz                9       23   4s3p2d




 Summary of "ao basis" -> "ao basis" (spherical)
 ------------------------------------------------------------------------------
       Tag                 Description            Shells   Functions and Types
 ---------------- ------------------------------  ------  ---------------------
 C                        aug-cc-pvtz               14       46   5s4p3d2f
 H                        aug-cc-pvtz                9       23   4s3p2d


  Caching 1-el integrals 
 
            General Information
            -------------------
          SCF calculation type: DFT
          Wavefunction type:  spin polarized.
          No. of atoms     :    11
          No. of electrons :    41
           Alpha electrons :    21
            Beta electrons :    20
          Charge           :     0
          Spin multiplicity:     2
          Use of symmetry is: off; symmetry adaption is: off
          Maximum number of iterations: 500
          This is a Direct SCF calculation.
          AO basis - number of functions:   391
                     number of shells:   129
          Convergence on energy requested:  1.00D-06
          Convergence on density requested:  1.00D-05
          Convergence on gradient requested:  5.00D-04
 
              XC Information
              --------------
                         B3LYP Method XC Potential
                     Hartree-Fock (Exact) Exchange  0.200          
                        Slater Exchange Functional  0.800 local    
                    Becke 1988 Exchange Functional  0.720 non-local
              Lee-Yang-Parr Correlation Functional  0.810          
                  VWN I RPA Correlation Functional  0.190 local    
 
             Grid Information
             ----------------
          Grid used for XC integration:  medium    
          Radial quadrature: Mura-Knowles        
          Angular quadrature: Lebedev. 
          Tag              B.-S. Rad. Rad. Pts. Rad. Cut. Ang. Pts.
          ---              ---------- --------- --------- ---------
          C                   0.70       49          15.0       434
          H                   0.35       45          17.0       434
          Grid pruning is: on 
          Number of quadrature shells:   519
          Spatial weights used:  Erf1
 
          Convergence Information
          -----------------------
          Convergence aids based upon iterative change in 
          total energy or number of iterations. 
          Levelshifting, if invoked, occurs when the 
          HOMO/LUMO gap drops below (HL_TOL):  1.00D-02
          DIIS, if invoked, will attempt to extrapolate 
          using up to (NFOCK): 10 stored Fock matrices.

                    Damping( 0%)  Levelshifting(0.5)       DIIS
                  --------------- ------------------- ---------------
          dE  on:    start            ASAP                start   
          dE off:    2 iters        500 iters           500 iters 

 
      Screening Tolerance Information
      -------------------------------
          Density screening/tol_rho:  1.00D-10
          AO Gaussian exp screening on grid/accAOfunc:  14
          CD Gaussian exp screening on grid/accCDfunc:  20
          XC Gaussian exp screening on grid/accXCfunc:  20
          Schwarz screening/accCoul:  1.00D-08

 
 WARNING : Found     7 linear dependencies 
 S eigenvalue threshold:     1.00000E-05
 Smallest S eigenvalue :     1.46348E-06
 Largest  S eigenvalue :     7.76560E-06
 

 !! The overlap matrix has   7 vectors deemed linearly dependent with
    eigenvalues:
 1.46D-06 2.24D-06 2.83D-06 3.54D-06 5.28D-06 5.95D-06 7.77D-06
 
 
      Superposition of Atomic Density Guess
      -------------------------------------
 
 Sum of atomic energies:        -228.52307259
 
      Non-variational initial energy
      ------------------------------

 Total energy =    -232.667203
 1-e energy   =    -691.328453
 2-e energy   =     263.597284
 HOMO         =      -0.183325
 LUMO         =      -0.022269
 
   Time after variat. SCF:     10.0
   Time prior to 1st pass:     10.0

 Grid_pts file          = ./mode598.92-m.gridpts.00
 Record size in doubles =  12289        No. of grid_pts per rec  =   3070
 Max. records in memory =      6        Max. recs in file   = 219798227

 Grid integrated density:      40.999767597381
 Requested integration accuracy:   0.10E-05

           Memory utilization after 1st SCF pass: 
           Heap Space remaining (MW):       12.96            12961278
          Stack Space remaining (MW):       13.10            13103676

   convergence    iter        energy       DeltaE   RMS-Dens  Diis-err    time
 ---------------- ----- ----------------- --------- --------- ---------  ------
 d= 0,ls=0.0,diis     1   -231.5814132698 -4.27D+02  6.12D-02  2.09D-01    21.6
                                                     6.92D-02  1.96D-01
 d= 0,ls=0.0,diis     2   -231.6398455179 -5.84D-02  6.03D-02  1.22D-02    32.7
                                                     6.81D-02  1.24D-02
 d= 0,ls=0.0,diis     3   -231.6446058835 -4.76D-03  1.27D-03  3.44D-03    43.4
                                                     1.38D-03  3.50D-03
 d= 0,ls=0.0,diis     4   -231.6457659759 -1.16D-03  2.03D-04  1.12D-03    54.2
                                                     2.07D-04  1.06D-03
 d= 0,ls=0.0,diis     5   -231.6462828183 -5.17D-04  3.37D-05  4.28D-05    64.9
                                                     3.10D-05  4.88D-05
  Resetting Diis
 d= 0,ls=0.0,diis     6   -231.6463106199 -2.78D-05  1.09D-05  8.43D-06    75.7
                                                     1.05D-05  6.91D-06
 d= 0,ls=0.0,diis     7   -231.6463170147 -6.39D-06  7.54D-06  2.29D-06    86.5
                                                     6.79D-06  2.51D-06
 d= 0,ls=0.0,diis     8   -231.6463178237 -8.09D-07  3.13D-06  6.18D-06    97.2
                                                     2.82D-06  5.56D-06


         Total DFT energy =     -231.646317823656
      One electron energy =     -696.564731447620
           Coulomb energy =      304.263824333325
    Exchange-Corr. energy =      -34.409376508353
 Nuclear repulsion energy =      195.063965798993

 Numeric. integr. density =       40.999986101210

     Total iterative time =     87.2s


 
                    DFT Final Alpha Molecular Orbital Analysis
                    ------------------------------------------
 
 Vector    1  Occ=1.000000D+00  E=-1.020519D+01
              MO Center= -8.8D-02,  1.4D+00,  4.8D-08, r^2= 3.0D-02
   Bfn.  Coefficient  Atom+Function         Bfn.  Coefficient  Atom+Function  
  ----- ------------  ---------------      ----- ------------  ---------------
     1      0.984156   1 C  s                 3      0.058847   1 C  s         
   234     -0.038572   6 C  s                50     -0.038205   2 C  s         
   143      0.037891   4 C  s               279      0.038039   7 H  s         
   371      0.037871  11 H  s                51     -0.031171   2 C  s         
   235     -0.030187   6 C  s                47      0.025662   2 C  s         
 
 Vector    2  Occ=1.000000D+00  E=-1.019190D+01
              MO Center=  1.2D+00, -5.0D-01, -1.3D-08, r^2= 1.4D-01
   Bfn.  Coefficient  Atom+Function         Bfn.  Coefficient  Atom+Function  
  ----- ------------  ---------------      ----- ------------  ---------------
   185      0.962894   5 C  s               231      0.196048   6 C  s         
    93      0.076271   3 C  s               142     -0.075287   4 C  s         
   348      0.058694  10 H  s               187      0.057451   5 C  s         
    50      0.052734   2 C  s               139      0.045562   4 C  s         
   279     -0.042162   7 H  s                51      0.040964   2 C  s         
 
 Vector    3  Occ=1.000000D+00  E=-1.019178D+01
              MO Center= -1.2D+00, -6.3D-01, -2.4D-08, r^2= 1.7D-01
   Bfn.  Coefficient  Atom+Function         Bfn.  Coefficient  Atom+Function  
  ----- ------------  ---------------      ----- ------------  ---------------
    93      0.955332   3 C  s                47      0.231057   2 C  s         
   185     -0.071611   5 C  s               142     -0.064517   4 C  s         
   302      0.060755   8 H  s                95      0.057062   3 C  s         
   234      0.055763   6 C  s               371     -0.046351  11 H  s         
   235      0.045276   6 C  s               139      0.039280   4 C  s         
 
 Vector    4  Occ=1.000000D+00  E=-1.019048D+01
              MO Center= -1.3D+00,  6.2D-01, -2.3D-08, r^2= 1.4D-01
   Bfn.  Coefficient  Atom+Function         Bfn.  Coefficient  Atom+Function  
  ----- ------------  ---------------      ----- ------------  ---------------
    47      0.957451   2 C  s                93     -0.226768   3 C  s         
   279      0.058306   7 H  s                49      0.055688   2 C  s         
   231      0.045184   6 C  s               189      0.038288   5 C  s         
   188      0.034329   5 C  s               143      0.033543   4 C  s         
     4     -0.030532   1 C  s                12      0.029228   1 C  px        
 
 Vector    5  Occ=1.000000D+00  E=-1.019039D+01
              MO Center=  1.2D+00,  7.9D-01,  4.5D-08, r^2= 1.2D-01
   Bfn.  Coefficient  Atom+Function         Bfn.  Coefficient  Atom+Function  
  ----- ------------  ---------------      ----- ------------  ---------------
   231      0.964372   6 C  s               185     -0.195342   5 C  s         
   371      0.058643  11 H  s               233      0.056116   6 C  s         
    97      0.040783   3 C  s                47     -0.037133   2 C  s         
    96      0.036281   3 C  s               189     -0.032927   5 C  s         
    12     -0.032536   1 C  px              188     -0.031969   5 C  s         
 
 Vector    6  Occ=1.000000D+00  E=-1.018448D+01
              MO Center=  8.4D-02, -1.3D+00,  3.9D-08, r^2= 3.5D-02
   Bfn.  Coefficient  Atom+Function         Bfn.  Coefficient  Atom+Function  
  ----- ------------  ---------------      ----- ------------  ---------------
   139      0.984215   4 C  s               141      0.057789   4 C  s         
    96     -0.046134   3 C  s               325      0.045949   9 H  s         
   188     -0.045658   5 C  s               143     -0.043459   4 C  s         
    93     -0.040741   3 C  s                 4      0.040412   1 C  s         
   185     -0.040147   5 C  s               151      0.035990   4 C  py        
 
 Vector    7  Occ=1.000000D+00  E=-8.725021D-01
              MO Center= -6.6D-03,  9.9D-02,  4.8D-09, r^2= 2.0D+00
   Bfn.  Coefficient  Atom+Function         Bfn.  Coefficient  Atom+Function  
  ----- ------------  ---------------      ----- ------------  ---------------
     2      0.213903   1 C  s                48      0.202752   2 C  s         
   232      0.202714   6 C  s                94      0.195619   3 C  s         
   186      0.195474   5 C  s               140      0.188329   4 C  s         
    50      0.090668   2 C  s               234      0.089669   6 C  s         
   188      0.088509   5 C  s                96      0.087755   3 C  s         
 
 Vector    8  Occ=1.000000D+00  E=-7.627908D-01
              MO Center= -6.0D-03,  1.0D-01,  2.1D-09, r^2= 2.8D+00
   Bfn.  Coefficient  Atom+Function         Bfn.  Coefficient  Atom+Function  
  ----- ------------  ---------------      ----- ------------  ---------------
    48      0.254469   2 C  s               186     -0.247212   5 C  s         
   232     -0.247473   6 C  s                94      0.239950   3 C  s         
    50      0.149134   2 C  s               234     -0.143250   6 C  s         
   279     -0.130981   7 H  s               371      0.127744  11 H  s         
   150     -0.115553   4 C  px               97      0.111210   3 C  s         
 
 Vector    9  Occ=1.000000D+00  E=-7.537675D-01
              MO Center=  9.6D-03, -1.5D-01, -2.7D-08, r^2= 2.6D+00
   Bfn.  Coefficient  Atom+Function         Bfn.  Coefficient  Atom+Function  
  ----- ------------  ---------------      ----- ------------  ---------------
   140     -0.301043   4 C  s                 2      0.278215   1 C  s         
    94     -0.154539   3 C  s               232      0.154234   6 C  s         
   142     -0.147321   4 C  s               186     -0.142787   5 C  s         
    48      0.142040   2 C  s                96     -0.106043   3 C  s         
   188     -0.103604   5 C  s                 4      0.102918   1 C  s         
 
 Vector   10  Occ=1.000000D+00  E=-6.187739D-01
              MO Center= -4.0D-04,  3.8D-02, -1.1D-08, r^2= 3.6D+00
   Bfn.  Coefficient  Atom+Function         Bfn.  Coefficient  Atom+Function  
  ----- ------------  ---------------      ----- ------------  ---------------
   186      0.209755   5 C  s                94     -0.207573   3 C  s         
    48      0.200157   2 C  s               232     -0.198576   6 C  s         
    50      0.184197   2 C  s               234     -0.182539   6 C  s         
   188      0.148150   5 C  s                96     -0.145798   3 C  s         
     6     -0.127207   1 C  px              144      0.117000   4 C  px        
 
 Vector   11  Occ=1.000000D+00  E=-6.035739D-01
              MO Center=  3.0D-03, -8.6D-02, -3.1D-08, r^2= 3.5D+00
   Bfn.  Coefficient  Atom+Function         Bfn.  Coefficient  Atom+Function  
  ----- ------------  ---------------      ----- ------------  ---------------
   142      0.258347   4 C  s                 2      0.239053   1 C  s         
   140      0.218586   4 C  s                 4      0.198642   1 C  s         
    94     -0.139985   3 C  s               186     -0.136887   5 C  s         
   234     -0.123410   6 C  s                50     -0.122012   2 C  s         
    96     -0.121729   3 C  s               188     -0.116823   5 C  s         
 
 Vector   12  Occ=1.000000D+00  E=-5.277748D-01
              MO Center=  8.4D-03, -1.5D-01, -1.1D-08, r^2= 4.1D+00
   Bfn.  Coefficient  Atom+Function         Bfn.  Coefficient  Atom+Function  
  ----- ------------  ---------------      ----- ------------  ---------------
   148      0.159372   4 C  py              145      0.138908   4 C  py        
   324     -0.126837   9 H  s                55      0.105451   2 C  px        
   240     -0.105149   6 C  py              323     -0.100398   9 H  s         
   237     -0.096310   6 C  py              193     -0.094390   5 C  px        
   278     -0.094519   7 H  s               370     -0.094405  11 H  s         
 
 Vector   13  Occ=1.000000D+00  E=-4.645714D-01
              MO Center= -1.7D-02,  1.0D-01, -1.0D-09, r^2= 2.7D+00
   Bfn.  Coefficient  Atom+Function         Bfn.  Coefficient  Atom+Function  
  ----- ------------  ---------------      ----- ------------  ---------------
     9      0.188813   1 C  px                6      0.175209   1 C  px        
   147      0.172243   4 C  px              144      0.158946   4 C  px        
   239     -0.133732   6 C  px              194     -0.132632   5 C  py        
    56     -0.131363   2 C  py               55     -0.124577   2 C  px        
   102      0.123042   3 C  py              191     -0.119554   5 C  py        
 
 Vector   14  Occ=1.000000D+00  E=-4.631821D-01
              MO Center=  2.7D-02, -1.6D-01, -4.2D-08, r^2= 4.8D+00
   Bfn.  Coefficient  Atom+Function         Bfn.  Coefficient  Atom+Function  
  ----- ------------  ---------------      ----- ------------  ---------------
     2      0.176412   1 C  s               347      0.138022  10 H  s         
   301      0.135341   8 H  s               140     -0.129264   4 C  s         
   193      0.126082   5 C  px              101     -0.121132   3 C  px        
   196      0.119572   5 C  px              104     -0.118167   3 C  px        
   188      0.118736   5 C  s               190      0.117094   5 C  px        
 
 Vector   15  Occ=1.000000D+00  E=-4.400104D-01
              MO Center= -2.2D-02,  2.1D-01, -2.5D-08, r^2= 4.0D+00
   Bfn.  Coefficient  Atom+Function         Bfn.  Coefficient  Atom+Function  
  ----- ------------  ---------------      ----- ------------  ---------------
   240      0.143810   6 C  py              102      0.140870   3 C  py        
   237      0.132741   6 C  py              370      0.132954  11 H  s         
    99      0.131753   3 C  py              278     -0.129836   7 H  s         
    56     -0.129110   2 C  py               55      0.128030   2 C  px        
   194     -0.125327   5 C  py               53     -0.119954   2 C  py        
 
 Vector   16  Occ=1.000000D+00  E=-3.990974D-01
              MO Center=  5.4D-02, -7.8D-01, -9.4D-09, r^2= 3.3D+00
   Bfn.  Coefficient  Atom+Function         Bfn.  Coefficient  Atom+Function  
  ----- ------------  ---------------      ----- ------------  ---------------
   148      0.233541   4 C  py              145      0.209176   4 C  py        
   324     -0.198461   9 H  s               151      0.172766   4 C  py        
   323     -0.153999   9 H  s                10      0.138531   1 C  py        
    13      0.120894   1 C  py              240      0.115936   6 C  py        
    56      0.108885   2 C  py              194     -0.108984   5 C  py        
 
 Vector   17  Occ=1.000000D+00  E=-3.837238D-01
              MO Center= -7.7D-03,  1.2D-01, -5.9D-08, r^2= 2.7D+00
   Bfn.  Coefficient  Atom+Function         Bfn.  Coefficient  Atom+Function  
  ----- ------------  ---------------      ----- ------------  ---------------
    11      0.173063   1 C  pz               57      0.156651   2 C  pz        
   241      0.156635   6 C  pz              103      0.152067   3 C  pz        
   195      0.152055   5 C  pz              149      0.146158   4 C  pz        
     8      0.136559   1 C  pz               54      0.125939   2 C  pz        
   238      0.125922   6 C  pz              100      0.121627   3 C  pz        
 
 Vector   18  Occ=1.000000D+00  E=-3.660212D-01
              MO Center=  8.0D-03, -1.4D-01, -2.8D-08, r^2= 4.1D+00
   Bfn.  Coefficient  Atom+Function         Bfn.  Coefficient  Atom+Function  
  ----- ------------  ---------------      ----- ------------  ---------------
   147     -0.169345   4 C  px              101      0.165084   3 C  px        
   193      0.165018   5 C  px              144     -0.159864   4 C  px        
     9      0.149439   1 C  px               98      0.149344   3 C  px        
   190      0.149166   5 C  px                6      0.141660   1 C  px        
   196      0.135410   5 C  px              104      0.133584   3 C  px        
 
 Vector   19  Occ=1.000000D+00  E=-2.685515D-01
              MO Center=  1.9D-02, -1.1D-02,  8.6D-08, r^2= 3.0D+00
   Bfn.  Coefficient  Atom+Function         Bfn.  Coefficient  Atom+Function  
  ----- ------------  ---------------      ----- ------------  ---------------
    11      0.237462   1 C  pz              149     -0.232110   4 C  pz        
     8      0.186801   1 C  pz              146     -0.185513   4 C  pz        
   195     -0.172264   5 C  pz               14      0.170612   1 C  pz        
   152     -0.166987   4 C  pz               57      0.160975   2 C  pz        
   192     -0.137590   5 C  pz               54      0.128489   2 C  pz        
 
 Vector   20  Occ=1.000000D+00  E=-2.678857D-01
              MO Center= -2.2D-02,  5.8D-02,  2.7D-07, r^2= 3.1D+00
   Bfn.  Coefficient  Atom+Function         Bfn.  Coefficient  Atom+Function  
  ----- ------------  ---------------      ----- ------------  ---------------
   103      0.231267   3 C  pz              241     -0.226088   6 C  pz        
   100      0.184383   3 C  pz              238     -0.180911   6 C  pz        
    57      0.170609   2 C  pz              195     -0.170540   5 C  pz        
   106      0.166308   3 C  pz              244     -0.164781   6 C  pz        
    54      0.136671   2 C  pz              192     -0.135822   5 C  pz        
 
 Vector   21  Occ=1.000000D+00  E=-2.483365D-01
              MO Center= -8.3D-02,  1.3D+00,  8.2D-08, r^2= 2.3D+00
   Bfn.  Coefficient  Atom+Function         Bfn.  Coefficient  Atom+Function  
  ----- ------------  ---------------      ----- ------------  ---------------
    10      0.385985   1 C  py               13      0.337768   1 C  py        
     5      0.335440   1 C  s                 7      0.299391   1 C  py        
     4      0.279448   1 C  s                 2      0.138446   1 C  s         
   243     -0.135979   6 C  py               59     -0.134312   2 C  py        
   102      0.112363   3 C  py              194      0.112288   5 C  py        
 
 Vector   22  Occ=0.000000D+00  E=-2.605865D-02
              MO Center= -4.2D-03,  6.5D-02, -1.1D-06, r^2= 4.3D+00
   Bfn.  Coefficient  Atom+Function         Bfn.  Coefficient  Atom+Function  
  ----- ------------  ---------------      ----- ------------  ---------------
   201      0.322248   5 C  pz              109     -0.318167   3 C  pz        
    63      0.315888   2 C  pz              247     -0.312225   6 C  pz        
    60      0.227933   2 C  pz              198      0.225306   5 C  pz        
   244     -0.225467   6 C  pz              106     -0.222622   3 C  pz        
    57      0.219833   2 C  pz              195      0.218266   5 C  pz        
 
 Vector   23  Occ=0.000000D+00  E=-1.861672D-02
              MO Center=  2.9D-03, -4.7D-02, -4.1D-06, r^2= 4.3D+00
   Bfn.  Coefficient  Atom+Function         Bfn.  Coefficient  Atom+Function  
  ----- ------------  ---------------      ----- ------------  ---------------
   155      0.439231   4 C  pz               17      0.373855   1 C  pz        
   152      0.273696   4 C  pz               11      0.259152   1 C  pz        
   149      0.250602   4 C  pz               14      0.240766   1 C  pz        
   109     -0.229979   3 C  pz              201     -0.222881   5 C  pz        
     8      0.200855   1 C  pz              247     -0.201272   6 C  pz        
 
 Vector   24  Occ=0.000000D+00  E=-1.011825D-02
              MO Center=  6.0D-02, -9.6D-01, -2.3D-06, r^2= 2.0D+01
   Bfn.  Coefficient  Atom+Function         Bfn.  Coefficient  Atom+Function  
  ----- ------------  ---------------      ----- ------------  ---------------
     5      1.445513   1 C  s               279     -0.978316   7 H  s         
   371     -0.974320  11 H  s               326     -0.742056   9 H  s         
   303     -0.728600   8 H  s               349     -0.732023  10 H  s         
   348     -0.653916  10 H  s               302     -0.646321   8 H  s         
   325     -0.588089   9 H  s               235      0.568372   6 C  s         
 
 Vector   25  Occ=0.000000D+00  E= 4.377901D-03
              MO Center=  1.2D-02, -2.6D-01, -9.5D-06, r^2= 2.7D+01
   Bfn.  Coefficient  Atom+Function         Bfn.  Coefficient  Atom+Function  
  ----- ------------  ---------------      ----- ------------  ---------------
    51      2.744599   2 C  s               235     -2.717723   6 C  s         
    97      2.674494   3 C  s               189     -2.670512   5 C  s         
   303      1.994124   8 H  s               349     -1.999806  10 H  s         
    15      1.866481   1 C  px              153      1.807573   4 C  px        
   280      1.547264   7 H  s               372     -1.531601  11 H  s         
 
 Vector   26  Occ=0.000000D+00  E= 8.724689D-03
              MO Center=  8.4D-03, -7.3D-02,  5.5D-05, r^2= 2.7D+01
   Bfn.  Coefficient  Atom+Function         Bfn.  Coefficient  Atom+Function  
  ----- ------------  ---------------      ----- ------------  ---------------
   143      6.244543   4 C  s               235     -4.023094   6 C  s         
    51     -3.994773   2 C  s               326      2.932650   9 H  s         
     5      2.588532   1 C  s               372     -2.394913  11 H  s         
   280     -2.381166   7 H  s               154      1.948818   4 C  py        
   246      1.952561   6 C  py               62      1.810882   2 C  py        
 
 Vector   27  Occ=0.000000D+00  E= 2.670355D-02
              MO Center= -1.3D-02,  2.4D-01, -2.4D-05, r^2= 3.1D+01
   Bfn.  Coefficient  Atom+Function         Bfn.  Coefficient  Atom+Function  
  ----- ------------  ---------------      ----- ------------  ---------------
   280      3.930572   7 H  s               372     -3.933720  11 H  s         
   235     -3.674913   6 C  s                51      3.640960   2 C  s         
   303     -3.601552   8 H  s               349      3.601546  10 H  s         
    61      2.224289   2 C  px               97     -2.187722   3 C  s         
   189      2.192903   5 C  s               199     -2.039481   5 C  px        
 
 Vector   28  Occ=0.000000D+00  E= 3.221404D-02
              MO Center=  3.6D-02, -6.2D-01, -1.2D-04, r^2= 2.9D+01
   Bfn.  Coefficient  Atom+Function         Bfn.  Coefficient  Atom+Function  
  ----- ------------  ---------------      ----- ------------  ---------------
     5      6.395681   1 C  s               326     -4.997084   9 H  s         
   303      3.733788   8 H  s               349      3.718792  10 H  s         
    97     -2.176609   3 C  s               154     -2.174644   4 C  py        
   189     -2.180894   5 C  s               199     -1.636863   5 C  px        
   245      1.627769   6 C  px               61     -1.585547   2 C  px        
 
 Vector   29  Occ=0.000000D+00  E= 4.329061D-02
              MO Center=  1.4D-02, -2.2D-01,  9.6D-06, r^2= 1.3D+01
   Bfn.  Coefficient  Atom+Function         Bfn.  Coefficient  Atom+Function  
  ----- ------------  ---------------      ----- ------------  ---------------
   155      0.598982   4 C  pz               63      0.579037   2 C  pz        
   247      0.573020   6 C  pz               17     -0.260344   1 C  pz        
    60     -0.155511   2 C  pz              244     -0.154656   6 C  pz        
   289     -0.125581   7 H  pz              381     -0.121526  11 H  pz        
   259      0.119205   6 C  d -1             77      0.112217   2 C  d  1      
 
 Vector   30  Occ=0.000000D+00  E= 5.495333D-02
              MO Center=  7.8D-03, -1.5D-01, -3.9D-05, r^2= 1.5D+01
   Bfn.  Coefficient  Atom+Function         Bfn.  Coefficient  Atom+Function  
  ----- ------------  ---------------      ----- ------------  ---------------
     5     10.700830   1 C  s               143      5.279239   4 C  s         
    51     -4.510152   2 C  s               235     -4.458125   6 C  s         
   303     -2.799859   8 H  s               349     -2.797597  10 H  s         
   326      2.057232   9 H  s               199      2.021302   5 C  px        
    97     -1.957585   3 C  s               189     -1.940819   5 C  s         
 
 Vector   31  Occ=0.000000D+00  E= 6.334905D-02
              MO Center= -4.2D-02,  6.5D-01, -1.0D-04, r^2= 2.8D+01
   Bfn.  Coefficient  Atom+Function         Bfn.  Coefficient  Atom+Function  
  ----- ------------  ---------------      ----- ------------  ---------------
     5     24.384434   1 C  s               235     -9.905036   6 C  s         
    51     -9.811229   2 C  s               143      7.629020   4 C  s         
    97     -6.565590   3 C  s               189     -6.457608   5 C  s         
   326      5.866813   9 H  s               154      4.775986   4 C  py        
   303     -4.705360   8 H  s               349     -4.660349  10 H  s         
 
 Vector   32  Occ=0.000000D+00  E= 6.574310D-02
              MO Center= -1.1D-03, -2.3D-02,  5.4D-04, r^2= 1.8D+01
   Bfn.  Coefficient  Atom+Function         Bfn.  Coefficient  Atom+Function  
  ----- ------------  ---------------      ----- ------------  ---------------
   201     -0.996930   5 C  pz              109      0.953251   3 C  pz        
    63      0.795682   2 C  pz              247     -0.747502   6 C  pz        
   169     -0.676774   4 C  d  1             31     -0.583160   1 C  d  1      
   198     -0.498947   5 C  pz               60      0.495867   2 C  pz        
   106      0.485070   3 C  pz              244     -0.481399   6 C  pz        
 
 Vector   33  Occ=0.000000D+00  E= 6.825438D-02
              MO Center= -9.1D-03,  1.9D-01, -2.7D-04, r^2= 1.8D+01
   Bfn.  Coefficient  Atom+Function         Bfn.  Coefficient  Atom+Function  
  ----- ------------  ---------------      ----- ------------  ---------------
   247      1.033664   6 C  pz               63      1.016015   2 C  pz        
   109     -0.821388   3 C  pz              201     -0.797758   5 C  pz        
   155     -0.754068   4 C  pz               14      0.629136   1 C  pz        
   152     -0.618239   4 C  pz               17      0.456722   1 C  pz        
   213     -0.452810   5 C  d -1            261     -0.406711   6 C  d  1      
 
 Vector   34  Occ=0.000000D+00  E= 7.645211D-02
              MO Center=  1.0D-02, -1.6D-01, -1.3D-04, r^2= 3.5D+01
   Bfn.  Coefficient  Atom+Function         Bfn.  Coefficient  Atom+Function  
  ----- ------------  ---------------      ----- ------------  ---------------
    51     13.969897   2 C  s               235    -13.762395   6 C  s         
    97     12.405602   3 C  s               189    -12.414755   5 C  s         
    15      7.677553   1 C  px              153      7.711041   4 C  px        
   107      4.790512   3 C  px              303      4.679870   8 H  s         
   349     -4.701620  10 H  s               199      4.440277   5 C  px        
 
 Vector   35  Occ=0.000000D+00  E= 7.790940D-02
              MO Center=  2.1D-01, -3.3D+00,  1.3D-04, r^2= 2.1D+01
   Bfn.  Coefficient  Atom+Function         Bfn.  Coefficient  Atom+Function  
  ----- ------------  ---------------      ----- ------------  ---------------
   143     18.272721   4 C  s               235    -13.579654   6 C  s         
    51    -13.305971   2 C  s               326      7.028727   9 H  s         
   246      5.734135   6 C  py               62      5.598888   2 C  py        
   200      5.463889   5 C  py              154      5.279741   4 C  py        
   108      4.969535   3 C  py              279      4.205825   7 H  s         
 
 Vector   36  Occ=0.000000D+00  E= 8.154806D-02
              MO Center= -7.1D-02,  1.4D+00,  6.9D-05, r^2= 2.8D+01
   Bfn.  Coefficient  Atom+Function         Bfn.  Coefficient  Atom+Function  
  ----- ------------  ---------------      ----- ------------  ---------------
   143     20.699375   4 C  s               235     -8.984089   6 C  s         
    51     -8.890570   2 C  s               246      5.307755   6 C  py        
    62      5.116459   2 C  py              325     -4.964753   9 H  s         
   372     -4.593555  11 H  s               200      4.543476   5 C  py        
   280     -4.533521   7 H  s               326      4.496203   9 H  s         
 
 Vector   37  Occ=0.000000D+00  E= 8.316807D-02
              MO Center=  3.3D-02, -7.3D-01, -9.7D-06, r^2= 2.2D+01
   Bfn.  Coefficient  Atom+Function         Bfn.  Coefficient  Atom+Function  
  ----- ------------  ---------------      ----- ------------  ---------------
    97      4.990966   3 C  s               189     -4.900418   5 C  s         
    51     -3.281150   2 C  s               235      2.985627   6 C  s         
   108      2.858400   3 C  py              303      2.807893   8 H  s         
   349     -2.804843  10 H  s               200     -2.613673   5 C  py        
   153      2.600037   4 C  px               96      2.091716   3 C  s         
 
 Vector   38  Occ=0.000000D+00  E= 9.540146D-02
              MO Center= -5.7D-02,  8.8D-01,  1.3D-05, r^2= 3.1D+01
   Bfn.  Coefficient  Atom+Function         Bfn.  Coefficient  Atom+Function  
  ----- ------------  ---------------      ----- ------------  ---------------
    51     17.636707   2 C  s               235    -17.717073   6 C  s         
   280      7.216303   7 H  s               372     -7.216928  11 H  s         
   189      6.931282   5 C  s                97     -6.882834   3 C  s         
   108     -6.443968   3 C  py              303     -6.206416   8 H  s         
   349      6.195665  10 H  s               200      5.933141   5 C  py        
 
 Vector   39  Occ=0.000000D+00  E= 1.017960D-01
              MO Center= -2.4D-02,  1.1D-01, -3.3D-04, r^2= 1.9D+01
   Bfn.  Coefficient  Atom+Function         Bfn.  Coefficient  Atom+Function  
  ----- ------------  ---------------      ----- ------------  ---------------
    51     13.958852   2 C  s               235    -13.516112   6 C  s         
   189    -10.943042   5 C  s                97     10.822573   3 C  s         
    15      9.996429   1 C  px              153      9.714518   4 C  px        
   246     -6.160838   6 C  py              108     -6.115192   3 C  py        
   200      5.881148   5 C  py               62      5.832724   2 C  py        
 
 Vector   40  Occ=0.000000D+00  E= 1.064729D-01
              MO Center=  9.2D-03,  1.3D-01, -5.6D-04, r^2= 2.1D+01
   Bfn.  Coefficient  Atom+Function         Bfn.  Coefficient  Atom+Function  
  ----- ------------  ---------------      ----- ------------  ---------------
   143     18.274269   4 C  s               235    -10.158434   6 C  s         
    51     -9.713663   2 C  s                 5     -9.462329   1 C  s         
   107     -8.754482   3 C  px              199      7.962191   5 C  px        
   245     -7.102937   6 C  px              200      6.855276   5 C  py        
    61      6.420163   2 C  px              108      5.544312   3 C  py        
 
 Vector   41  Occ=0.000000D+00  E= 1.081985D-01
              MO Center=  3.2D-03,  1.6D-01, -9.9D-05, r^2= 2.2D+01
   Bfn.  Coefficient  Atom+Function         Bfn.  Coefficient  Atom+Function  
  ----- ------------  ---------------      ----- ------------  ---------------
   201      3.434338   5 C  pz               63      3.400091   2 C  pz        
   247     -3.380620   6 C  pz              109     -3.291532   3 C  pz        
    60      0.699807   2 C  pz              244     -0.692810   6 C  pz        
   198      0.649440   5 C  pz              106     -0.624559   3 C  pz        
    77     -0.386574   2 C  d  1            215      0.371230   5 C  d  1      
 
 Vector   42  Occ=0.000000D+00  E= 1.089649D-01
              MO Center=  1.5D-02, -4.7D-01,  2.2D-03, r^2= 2.1D+01
   Bfn.  Coefficient  Atom+Function         Bfn.  Coefficient  Atom+Function  
  ----- ------------  ---------------      ----- ------------  ---------------
   155      5.321673   4 C  pz              109     -3.519584   3 C  pz        
   201     -3.369420   5 C  pz               17      2.508453   1 C  pz        
   152      0.982739   4 C  pz              106     -0.616923   3 C  pz        
   198     -0.590347   5 C  pz              167      0.568803   4 C  d -1      
   247     -0.545455   6 C  pz               14      0.504837   1 C  pz        
 
 Vector   43  Occ=0.000000D+00  E= 1.094927D-01
              MO Center=  3.1D-02, -4.5D-01, -1.2D-03, r^2= 2.7D+01
   Bfn.  Coefficient  Atom+Function         Bfn.  Coefficient  Atom+Function  
  ----- ------------  ---------------      ----- ------------  ---------------
   326      7.669589   9 H  s               154      7.054686   4 C  py        
   303     -6.483825   8 H  s               349     -6.471170  10 H  s         
   143     -5.603298   4 C  s               108     -4.427899   3 C  py        
   200     -4.186803   5 C  py               62     -4.138644   2 C  py        
   246     -4.152949   6 C  py                4      3.926486   1 C  s         
 
 Vector   44  Occ=0.000000D+00  E= 1.177933D-01
              MO Center= -4.0D-02,  6.5D-01, -4.2D-04, r^2= 1.4D+01
   Bfn.  Coefficient  Atom+Function         Bfn.  Coefficient  Atom+Function  
  ----- ------------  ---------------      ----- ------------  ---------------
    17      6.876635   1 C  pz               63     -6.013419   2 C  pz        
   247     -6.026336   6 C  pz              109      5.051941   3 C  pz        
   201      5.045976   5 C  pz              155     -4.819165   4 C  pz        
    14      1.235226   1 C  pz               60     -1.017742   2 C  pz        
   244     -1.021931   6 C  pz              106      0.893401   3 C  pz        
 
 Vector   45  Occ=0.000000D+00  E= 1.264038D-01
              MO Center= -2.2D-02,  2.9D-01, -2.0D-05, r^2= 2.5D+01
   Bfn.  Coefficient  Atom+Function         Bfn.  Coefficient  Atom+Function  
  ----- ------------  ---------------      ----- ------------  ---------------
    51      7.574932   2 C  s               235     -7.605851   6 C  s         
   107      7.217288   3 C  px              199      7.109656   5 C  px        
   245     -7.036202   6 C  px               61     -6.925085   2 C  px        
    15      6.443431   1 C  px               97     -6.188841   3 C  s         
   189      6.197319   5 C  s               153     -5.815651   4 C  px        
 
 Vector   46  Occ=0.000000D+00  E= 1.274466D-01
              MO Center= -1.1D-02,  1.9D-01,  1.4D-04, r^2= 2.6D+01
   Bfn.  Coefficient  Atom+Function         Bfn.  Coefficient  Atom+Function  
  ----- ------------  ---------------      ----- ------------  ---------------
   154     -8.029471   4 C  py               16      7.422750   1 C  py        
   108      6.886742   3 C  py               62     -6.589304   2 C  py        
   200      6.573856   5 C  py              246     -6.368107   6 C  py        
   326     -4.049815   9 H  s                 5      3.559441   1 C  s         
   303      3.166236   8 H  s               349      3.162327  10 H  s         
 
 Vector   47  Occ=0.000000D+00  E= 1.609399D-01
              MO Center= -8.8D-03,  1.4D-01,  9.9D-05, r^2= 1.7D+01
   Bfn.  Coefficient  Atom+Function         Bfn.  Coefficient  Atom+Function  
  ----- ------------  ---------------      ----- ------------  ---------------
    17      8.197065   1 C  pz               63     -8.003787   2 C  pz        
   247     -8.011084   6 C  pz              155     -7.858191   4 C  pz        
   109      7.774371   3 C  pz              201      7.771674   5 C  pz        
    60     -1.194479   2 C  pz              106      1.190414   3 C  pz        
   198      1.194901   5 C  pz              244     -1.191143   6 C  pz        
 
 Vector   48  Occ=0.000000D+00  E= 1.660230D-01
              MO Center= -9.6D-02,  1.4D+00,  3.1D-04, r^2= 2.2D+01
   Bfn.  Coefficient  Atom+Function         Bfn.  Coefficient  Atom+Function  
  ----- ------------  ---------------      ----- ------------  ---------------
     5     59.203879   1 C  s               235    -26.076756   6 C  s         
    51    -25.892503   2 C  s               143     25.972896   4 C  s         
    97    -14.570463   3 C  s               189    -14.253130   5 C  s         
   154      7.436004   4 C  py              245      6.744746   6 C  px        
    61     -6.450534   2 C  px              326      6.155575   9 H  s         
 
 Vector   49  Occ=0.000000D+00  E= 1.754185D-01
              MO Center=  2.5D-02, -3.9D-01, -1.6D-04, r^2= 1.1D+01
   Bfn.  Coefficient  Atom+Function         Bfn.  Coefficient  Atom+Function  
  ----- ------------  ---------------      ----- ------------  ---------------
   335      1.104738   9 H  pz              312      1.081540   8 H  pz        
   358      1.077239  10 H  pz              289      0.970991   7 H  pz        
   381      0.974480  11 H  pz               17      0.953533   1 C  pz        
    63     -0.878965   2 C  pz              247     -0.879237   6 C  pz        
   106     -0.843110   3 C  pz              198     -0.844765   5 C  pz        
 
 Vector   50  Occ=0.000000D+00  E= 1.864100D-01
              MO Center=  3.8D-02, -5.5D-01,  9.2D-05, r^2= 1.5D+01
   Bfn.  Coefficient  Atom+Function         Bfn.  Coefficient  Atom+Function  
  ----- ------------  ---------------      ----- ------------  ---------------
     5     15.535061   1 C  s                97     -7.293908   3 C  s         
   189     -7.259651   5 C  s               235     -4.708533   6 C  s         
   325      4.419325   9 H  s                51     -4.290698   2 C  s         
    62     -4.062924   2 C  py              154      3.995213   4 C  py        
   246     -3.795551   6 C  py              348      3.334879  10 H  s         
 
 Vector   51  Occ=0.000000D+00  E= 1.980339D-01
              MO Center= -1.2D-01,  4.6D-01,  3.5D-04, r^2= 2.3D+01
   Bfn.  Coefficient  Atom+Function         Bfn.  Coefficient  Atom+Function  
  ----- ------------  ---------------      ----- ------------  ---------------
    51     46.795554   2 C  s               235    -42.182001   6 C  s         
   189    -25.746579   5 C  s                97     24.599484   3 C  s         
    15     18.441672   1 C  px              153     17.058750   4 C  px        
   348     14.173043  10 H  s               302    -13.783998   8 H  s         
   108     -9.311666   3 C  py              279     -8.785021   7 H  s         
 
 Vector   52  Occ=0.000000D+00  E= 1.984365D-01
              MO Center=  1.5D-01, -7.2D-01, -4.9D-04, r^2= 2.3D+01
   Bfn.  Coefficient  Atom+Function         Bfn.  Coefficient  Atom+Function  
  ----- ------------  ---------------      ----- ------------  ---------------
   143     61.190049   4 C  s               235    -37.596497   6 C  s         
    51    -31.321495   2 C  s               325    -16.831100   9 H  s         
    62     14.742616   2 C  py              200     14.489988   5 C  py        
   246     14.424733   6 C  py              108     11.825774   3 C  py        
     5    -11.568147   1 C  s               371     11.600463  11 H  s         
 
 Vector   53  Occ=0.000000D+00  E= 2.154173D-01
              MO Center=  7.0D-02, -1.4D+00, -3.9D-05, r^2= 1.5D+01
   Bfn.  Coefficient  Atom+Function         Bfn.  Coefficient  Atom+Function  
  ----- ------------  ---------------      ----- ------------  ---------------
    97     13.909733   3 C  s               189    -13.800942   5 C  s         
    96      6.620305   3 C  s               188     -6.466212   5 C  s         
   153      6.332711   4 C  px              279     -5.139810   7 H  s         
   371      5.131386  11 H  s               303      4.743511   8 H  s         
   349     -4.713165  10 H  s               246     -4.490971   6 C  py        
 
 Vector   54  Occ=0.000000D+00  E= 2.182516D-01
              MO Center=  2.6D-02, -2.8D-01, -2.0D-04, r^2= 1.5D+01
   Bfn.  Coefficient  Atom+Function         Bfn.  Coefficient  Atom+Function  
  ----- ------------  ---------------      ----- ------------  ---------------
   143     25.729953   4 C  s                51    -18.393829   2 C  s         
   235    -17.116307   6 C  s                 5     15.973051   1 C  s         
    16     -6.462150   1 C  py              325     -6.035777   9 H  s         
   246      4.933609   6 C  py               62      4.599709   2 C  py        
   371      3.752516  11 H  s               279      3.714007   7 H  s         
 
 Vector   55  Occ=0.000000D+00  E= 2.190994D-01
              MO Center= -1.7D-02, -8.9D-02,  1.1D-03, r^2= 1.5D+01
   Bfn.  Coefficient  Atom+Function         Bfn.  Coefficient  Atom+Function  
  ----- ------------  ---------------      ----- ------------  ---------------
   235    -20.380201   6 C  s                51     19.198623   2 C  s         
   108     -8.362606   3 C  py              200      8.231050   5 C  py        
    15      7.530242   1 C  px              302     -6.925348   8 H  s         
   348      6.936649  10 H  s               153      6.295639   4 C  px        
    62      4.102369   2 C  py              246     -3.804469   6 C  py        
 
 Vector   56  Occ=0.000000D+00  E= 2.301180D-01
              MO Center=  3.7D-02,  2.9D-01,  1.9D-03, r^2= 1.8D+01
   Bfn.  Coefficient  Atom+Function         Bfn.  Coefficient  Atom+Function  
  ----- ------------  ---------------      ----- ------------  ---------------
   199      5.054653   5 C  px              107      4.498390   3 C  px        
   153     -3.566033   4 C  px              234      3.346705   6 C  s         
   349     -3.257786  10 H  s                50     -3.200906   2 C  s         
   303      3.059490   8 H  s                15     -2.626016   1 C  px        
   108      2.470635   3 C  py               59      1.938082   2 C  py        
 
 Vector   57  Occ=0.000000D+00  E= 2.311928D-01
              MO Center= -2.1D-03,  1.9D-03, -3.8D-03, r^2= 1.6D+01
   Bfn.  Coefficient  Atom+Function         Bfn.  Coefficient  Atom+Function  
  ----- ------------  ---------------      ----- ------------  ---------------
   106      2.142161   3 C  pz              198     -2.141971   5 C  pz        
    60      2.048523   2 C  pz              244     -2.047020   6 C  pz        
   312     -1.817577   8 H  pz              358      1.818593  10 H  pz        
   289     -1.723760   7 H  pz              381      1.717451  11 H  pz        
   169     -1.379490   4 C  d  1             31     -1.247829   1 C  d  1      
 
 Vector   58  Occ=0.000000D+00  E= 2.354092D-01
              MO Center= -8.3D-03,  2.1D-01,  5.8D-04, r^2= 1.6D+01
   Bfn.  Coefficient  Atom+Function         Bfn.  Coefficient  Atom+Function  
  ----- ------------  ---------------      ----- ------------  ---------------
   143     14.866838   4 C  s               235    -13.276552   6 C  s         
   107     -8.349162   3 C  px               51     -7.568537   2 C  s         
   199      7.454994   5 C  px               61      5.430682   2 C  px        
   245     -5.353153   6 C  px              303     -4.809535   8 H  s         
   200      4.536639   5 C  py                5      4.039639   1 C  s         
 
 Vector   59  Occ=0.000000D+00  E= 2.365092D-01
              MO Center= -4.9D-02,  6.9D-02,  8.3D-04, r^2= 1.7D+01
   Bfn.  Coefficient  Atom+Function         Bfn.  Coefficient  Atom+Function  
  ----- ------------  ---------------      ----- ------------  ---------------
    97    -33.104960   3 C  s               189     32.995063   5 C  s         
    51     32.346639   2 C  s               235    -30.452629   6 C  s         
   188     14.461252   5 C  s                96    -14.212938   3 C  s         
   371    -10.993824  11 H  s               348     10.662644  10 H  s         
   279     10.522929   7 H  s               302    -10.552645   8 H  s         
 
 Vector   60  Occ=0.000000D+00  E= 2.434357D-01
              MO Center=  4.7D-03, -4.4D-02, -3.9D-04, r^2= 1.5D+01
   Bfn.  Coefficient  Atom+Function         Bfn.  Coefficient  Atom+Function  
  ----- ------------  ---------------      ----- ------------  ---------------
   152      3.414934   4 C  pz               14     -3.023741   1 C  pz        
   381      2.176489  11 H  pz              289      2.164948   7 H  pz        
   335     -2.124881   9 H  pz              261      2.003368   6 C  d  1      
    77     -1.983017   2 C  d  1             63     -1.596071   2 C  pz        
   247     -1.602019   6 C  pz              155      1.372263   4 C  pz        
 
 Vector   61  Occ=0.000000D+00  E= 2.594876D-01
              MO Center=  6.1D-02, -6.0D-01,  6.5D-05, r^2= 1.7D+01
   Bfn.  Coefficient  Atom+Function         Bfn.  Coefficient  Atom+Function  
  ----- ------------  ---------------      ----- ------------  ---------------
     5      8.745630   1 C  s               108     -6.596382   3 C  py        
   200     -6.107560   5 C  py              349     -5.229928  10 H  s         
   199      5.163646   5 C  px              303     -5.142552   8 H  s         
   197     -4.887725   5 C  py              143     -4.779026   4 C  s         
   105     -4.673400   3 C  py              154      4.379731   4 C  py        
 
 Vector   62  Occ=0.000000D+00  E= 2.620189D-01
              MO Center=  6.8D-02, -1.1D+00, -5.2D-05, r^2= 1.7D+01
   Bfn.  Coefficient  Atom+Function         Bfn.  Coefficient  Atom+Function  
  ----- ------------  ---------------      ----- ------------  ---------------
     5     18.954514   1 C  s               154     15.378265   4 C  py        
   143     15.163931   4 C  s                51    -14.570718   2 C  s         
   235    -14.556218   6 C  s               326      9.181641   9 H  s         
     4      6.019588   1 C  s               108     -4.824088   3 C  py        
    97     -4.647990   3 C  s               189     -4.665740   5 C  s         
 
 Vector   63  Occ=0.000000D+00  E= 2.676626D-01
              MO Center= -4.8D-02,  4.3D-01,  6.5D-05, r^2= 2.0D+01
   Bfn.  Coefficient  Atom+Function         Bfn.  Coefficient  Atom+Function  
  ----- ------------  ---------------      ----- ------------  ---------------
   235    -20.253071   6 C  s                51     20.144951   2 C  s         
    97    -11.914107   3 C  s               189     11.919626   5 C  s         
    61     11.036964   2 C  px              245     10.232002   6 C  px        
    96     -8.779484   3 C  s               188      8.730423   5 C  s         
   279      8.773662   7 H  s               371     -8.758570  11 H  s         
 
 Vector   64  Occ=0.000000D+00  E= 2.747863D-01
              MO Center= -9.6D-03,  2.3D-02,  6.8D-05, r^2= 1.4D+01
   Bfn.  Coefficient  Atom+Function         Bfn.  Coefficient  Atom+Function  
  ----- ------------  ---------------      ----- ------------  ---------------
   143      8.949328   4 C  s                 5      8.699147   1 C  s         
   154      5.761858   4 C  py              279     -5.747729   7 H  s         
   371     -5.560465  11 H  s               302     -4.686978   8 H  s         
   348     -4.611652  10 H  s               325     -4.359529   9 H  s         
    16     -4.033460   1 C  py              246      3.240730   6 C  py        
 
 Vector   65  Occ=0.000000D+00  E= 2.829753D-01
              MO Center= -5.7D-03,  1.8D-01, -1.9D-05, r^2= 1.6D+01
   Bfn.  Coefficient  Atom+Function         Bfn.  Coefficient  Atom+Function  
  ----- ------------  ---------------      ----- ------------  ---------------
    12      9.528945   1 C  px               97      8.948225   3 C  s         
   189     -8.849369   5 C  s               348     -8.177814  10 H  s         
   235      8.057967   6 C  s                51     -7.976446   2 C  s         
   302      8.016080   8 H  s               199      7.653180   5 C  px        
   107      7.142990   3 C  px              150      6.192128   4 C  px        
 
 Vector   66  Occ=0.000000D+00  E= 2.954276D-01
              MO Center= -7.8D-04,  5.0D-02, -2.0D-05, r^2= 1.6D+01
   Bfn.  Coefficient  Atom+Function         Bfn.  Coefficient  Atom+Function  
  ----- ------------  ---------------      ----- ------------  ---------------
    63      3.205646   2 C  pz              201      3.203204   5 C  pz        
   247     -3.196496   6 C  pz              109     -3.173982   3 C  pz        
   289     -2.285740   7 H  pz               60      2.265359   2 C  pz        
   358     -2.274327  10 H  pz              381      2.268980  11 H  pz        
   244     -2.247884   6 C  pz              312      2.252524   8 H  pz        
 
 Vector   67  Occ=0.000000D+00  E= 2.962820D-01
              MO Center= -5.9D-02,  9.6D-01,  4.1D-04, r^2= 1.4D+01
   Bfn.  Coefficient  Atom+Function         Bfn.  Coefficient  Atom+Function  
  ----- ------------  ---------------      ----- ------------  ---------------
     4     10.431131   1 C  s                59     -5.728456   2 C  py        
   243     -5.648290   6 C  py                5      5.525999   1 C  s         
   105     -5.519898   3 C  py              197     -5.144204   5 C  py        
    16      4.272530   1 C  py              371     -4.216901  11 H  s         
   279     -4.155146   7 H  s                13      3.914984   1 C  py        
 
 Vector   68  Occ=0.000000D+00  E= 3.080549D-01
              MO Center=  6.2D-03, -2.7D-01, -4.5D-04, r^2= 1.5D+01
   Bfn.  Coefficient  Atom+Function         Bfn.  Coefficient  Atom+Function  
  ----- ------------  ---------------      ----- ------------  ---------------
   155      5.181474   4 C  pz               14      4.365516   1 C  pz        
   109     -3.763022   3 C  pz              201     -3.723961   5 C  pz        
   335     -2.709013   9 H  pz              244     -2.064724   6 C  pz        
    60     -2.034489   2 C  pz              152      1.851715   4 C  pz        
    17      1.837578   1 C  pz               29     -1.719870   1 C  d -1      
 
 Vector   69  Occ=0.000000D+00  E= 3.150369D-01
              MO Center=  1.5D-02, -7.3D-02,  1.8D-05, r^2= 9.1D+00
   Bfn.  Coefficient  Atom+Function         Bfn.  Coefficient  Atom+Function  
  ----- ------------  ---------------      ----- ------------  ---------------
   261      1.260863   6 C  d  1             77      1.125841   2 C  d  1      
   169     -1.084620   4 C  d  1             75     -1.035135   2 C  d -1      
   259      0.860698   6 C  d -1            381      0.732731  11 H  pz        
   289     -0.712022   7 H  pz               31      0.636007   1 C  d  1      
   244      0.353537   6 C  pz               60     -0.319338   2 C  pz        
 
 Vector   70  Occ=0.000000D+00  E= 3.284604D-01
              MO Center=  3.7D-02, -6.2D-01,  7.1D-05, r^2= 1.5D+01
   Bfn.  Coefficient  Atom+Function         Bfn.  Coefficient  Atom+Function  
  ----- ------------  ---------------      ----- ------------  ---------------
   142     12.144012   4 C  s               188      8.829360   5 C  s         
    96      8.598337   3 C  s               151     -6.840971   4 C  py        
   325     -5.845648   9 H  s                 4     -5.235663   1 C  s         
   334     -5.009626   9 H  py                5      4.901843   1 C  s         
   302     -4.391778   8 H  s               348     -4.383355  10 H  s         
 
 Vector   71  Occ=0.000000D+00  E= 3.347359D-01
              MO Center=  9.0D-05,  2.6D-02,  1.9D-04, r^2= 7.7D+00
   Bfn.  Coefficient  Atom+Function         Bfn.  Coefficient  Atom+Function  
  ----- ------------  ---------------      ----- ------------  ---------------
   289      2.049097   7 H  pz              381      2.016833  11 H  pz        
   335      1.841448   9 H  pz               14     -1.758367   1 C  pz        
   155     -1.721449   4 C  pz              247     -1.584483   6 C  pz        
    63     -1.548672   2 C  pz               77     -1.532819   2 C  d  1      
   261      1.384023   6 C  d  1            106     -1.316323   3 C  pz        
 
 Vector   72  Occ=0.000000D+00  E= 3.433129D-01
              MO Center=  1.9D-02, -3.9D-01, -4.5D-03, r^2= 1.2D+01
   Bfn.  Coefficient  Atom+Function         Bfn.  Coefficient  Atom+Function  
  ----- ------------  ---------------      ----- ------------  ---------------
   169      3.295422   4 C  d  1             31      2.701628   1 C  d  1      
   312     -2.470871   8 H  pz              358      2.482484  10 H  pz        
   123      2.188300   3 C  d  1            215      2.138995   5 C  d  1      
   198      1.824914   5 C  pz              106     -1.769699   3 C  pz        
   289     -1.456567   7 H  pz              381      1.408599  11 H  pz        
 
 Vector   73  Occ=0.000000D+00  E= 3.449208D-01
              MO Center= -5.2D-02,  5.6D-01, -2.1D-03, r^2= 1.2D+01
   Bfn.  Coefficient  Atom+Function         Bfn.  Coefficient  Atom+Function  
  ----- ------------  ---------------      ----- ------------  ---------------
   143     23.690315   4 C  s               325    -13.016754   9 H  s         
   235    -12.231497   6 C  s               371     12.076563  11 H  s         
   279     11.752653   7 H  s                51    -11.272341   2 C  s         
     5     -7.710102   1 C  s               197     -6.928753   5 C  py        
   105     -6.779772   3 C  py              243     -5.960485   6 C  py        
 
 Vector   74  Occ=0.000000D+00  E= 3.478198D-01
              MO Center=  6.1D-03, -1.5D-01,  4.0D-03, r^2= 1.2D+01
   Bfn.  Coefficient  Atom+Function         Bfn.  Coefficient  Atom+Function  
  ----- ------------  ---------------      ----- ------------  ---------------
    51     21.182586   2 C  s               235    -21.157644   6 C  s         
   348     12.149906  10 H  s               302    -11.813112   8 H  s         
   189    -11.042860   5 C  s                97     10.852372   3 C  s         
   279    -10.053304   7 H  s               371      9.460885  11 H  s         
    12     -8.091933   1 C  px              150     -7.029926   4 C  px        
 
 Vector   75  Occ=0.000000D+00  E= 3.481521D-01
              MO Center=  2.8D-02, -5.3D-01,  3.2D-03, r^2= 1.3D+01
   Bfn.  Coefficient  Atom+Function         Bfn.  Coefficient  Atom+Function  
  ----- ------------  ---------------      ----- ------------  ---------------
   155     -3.941127   4 C  pz               17      3.750337   1 C  pz        
   109      3.532295   3 C  pz              201      3.532643   5 C  pz        
    63     -3.419570   2 C  pz              247     -3.422151   6 C  pz        
   152     -3.004806   4 C  pz              213     -2.314920   5 C  d -1      
   381      2.272114  11 H  pz              289      2.250584   7 H  pz        
 
 Vector   76  Occ=0.000000D+00  E= 3.527347D-01
              MO Center=  4.1D-02, -5.2D-01, -2.0D-04, r^2= 1.4D+01
   Bfn.  Coefficient  Atom+Function         Bfn.  Coefficient  Atom+Function  
  ----- ------------  ---------------      ----- ------------  ---------------
    17      6.408428   1 C  pz               63     -5.869394   2 C  pz        
   247     -5.878871   6 C  pz              109      5.144489   3 C  pz        
   201      5.139029   5 C  pz              155     -4.869977   4 C  pz        
   335      3.947985   9 H  pz               14      3.806796   1 C  pz        
   167      3.068939   4 C  d -1             60     -2.678543   2 C  pz        
 
 Vector   77  Occ=0.000000D+00  E= 3.546302D-01
              MO Center= -1.7D-02,  3.2D-01, -6.7D-04, r^2= 1.5D+01
   Bfn.  Coefficient  Atom+Function         Bfn.  Coefficient  Atom+Function  
  ----- ------------  ---------------      ----- ------------  ---------------
     5     31.345061   1 C  s                51    -15.986769   2 C  s         
   143     15.928240   4 C  s               235    -15.528354   6 C  s         
   151    -11.069001   4 C  py              196     -7.485377   5 C  px        
   234      7.424412   6 C  s                50      7.337166   2 C  s         
    13      7.294648   1 C  py              104      7.253989   3 C  px        
 
 Vector   78  Occ=0.000000D+00  E= 3.598960D-01
              MO Center= -4.6D-02,  7.5D-01,  2.4D-04, r^2= 1.3D+01
   Bfn.  Coefficient  Atom+Function         Bfn.  Coefficient  Atom+Function  
  ----- ------------  ---------------      ----- ------------  ---------------
   289      3.398211   7 H  pz              381     -3.412544  11 H  pz        
    60      3.168183   2 C  pz              244     -3.142916   6 C  pz        
    77     -3.087868   2 C  d  1            121     -3.093330   3 C  d -1      
   259      3.029250   6 C  d -1            213      2.780526   5 C  d -1      
   312     -2.768835   8 H  pz              358      2.762419  10 H  pz        
 
 Vector   79  Occ=0.000000D+00  E= 3.685298D-01
              MO Center=  6.6D-02, -5.7D-01, -1.7D-04, r^2= 1.3D+01
   Bfn.  Coefficient  Atom+Function         Bfn.  Coefficient  Atom+Function  
  ----- ------------  ---------------      ----- ------------  ---------------
   188     10.786658   5 C  s                96     10.658630   3 C  s         
   196      8.536960   5 C  px              104     -8.452594   3 C  px        
   142     -7.529943   4 C  s                 5      7.170945   1 C  s         
   212      5.543751   5 C  d -2            258      5.394686   6 C  d -2      
   242     -5.187910   6 C  px              120     -5.106606   3 C  d -2      
 
 Vector   80  Occ=0.000000D+00  E= 3.720771D-01
              MO Center=  2.9D-03, -3.1D-01, -2.0D-04, r^2= 1.3D+01
   Bfn.  Coefficient  Atom+Function         Bfn.  Coefficient  Atom+Function  
  ----- ------------  ---------------      ----- ------------  ---------------
    97      9.844735   3 C  s               189     -9.825455   5 C  s         
   234     -9.037266   6 C  s                50      8.990218   2 C  s         
   279     -5.662832   7 H  s               371      5.294984  11 H  s         
   311     -5.227087   8 H  py              357      5.139457  10 H  py        
   235      4.826336   6 C  s               212     -4.782052   5 C  d -2      
 
 Vector   81  Occ=0.000000D+00  E= 3.819103D-01
              MO Center=  3.7D-02, -5.7D-01, -3.3D-06, r^2= 1.6D+01
   Bfn.  Coefficient  Atom+Function         Bfn.  Coefficient  Atom+Function  
  ----- ------------  ---------------      ----- ------------  ---------------
   166      9.090544   4 C  d -2            333      7.118582   9 H  px        
   150     -6.662687   4 C  px              216     -6.506997   5 C  d  2      
   124      6.158578   3 C  d  2            279      5.860267   7 H  s         
   371     -5.879621  11 H  s               310      5.123249   8 H  px        
   356      4.985964  10 H  px               96     -4.920994   3 C  s         
 
 Vector   82  Occ=0.000000D+00  E= 3.932519D-01
              MO Center= -3.1D-02,  4.6D-01,  2.0D-04, r^2= 1.5D+01
   Bfn.  Coefficient  Atom+Function         Bfn.  Coefficient  Atom+Function  
  ----- ------------  ---------------      ----- ------------  ---------------
    12     12.194404   1 C  px               51    -11.206621   2 C  s         
   235     10.959563   6 C  s                78     -9.108453   2 C  d  2      
   262      8.726440   6 C  d  2             15     -6.842885   1 C  px        
   216      6.672139   5 C  d  2            153     -5.869486   4 C  px        
   379     -5.840640  11 H  px              124     -5.800131   3 C  d  2      
 
 Vector   83  Occ=0.000000D+00  E= 3.960419D-01
              MO Center= -5.5D-02,  8.3D-01,  2.2D-04, r^2= 1.2D+01
   Bfn.  Coefficient  Atom+Function         Bfn.  Coefficient  Atom+Function  
  ----- ------------  ---------------      ----- ------------  ---------------
   152     -7.532585   4 C  pz              106      7.337305   3 C  pz        
   198      7.341290   5 C  pz               60     -6.472256   2 C  pz        
   244     -6.489663   6 C  pz              167     -6.336387   4 C  d -1      
   215      5.134878   5 C  d  1            123     -4.694552   3 C  d  1      
    14      4.575942   1 C  pz              259      4.015960   6 C  d -1      
 
 Vector   84  Occ=0.000000D+00  E= 4.017324D-01
              MO Center= -5.1D-02,  5.2D-01, -7.3D-04, r^2= 1.5D+01
   Bfn.  Coefficient  Atom+Function         Bfn.  Coefficient  Atom+Function  
  ----- ------------  ---------------      ----- ------------  ---------------
     5     51.609416   1 C  s                51    -19.880617   2 C  s         
   235    -19.586997   6 C  s                97    -17.410754   3 C  s         
   189    -17.300868   5 C  s               143     11.605457   4 C  s         
   142    -10.284805   4 C  s                 4     -9.654862   1 C  s         
   234     -8.213875   6 C  s               325      7.877773   9 H  s         
 
 Vector   85  Occ=0.000000D+00  E= 4.052852D-01
              MO Center= -2.5D-03,  8.9D-02, -6.8D-05, r^2= 1.3D+01
   Bfn.  Coefficient  Atom+Function         Bfn.  Coefficient  Atom+Function  
  ----- ------------  ---------------      ----- ------------  ---------------
     5     33.886703   1 C  s               143     17.761749   4 C  s         
   235    -13.344542   6 C  s                51    -12.657323   2 C  s         
    96     10.058443   3 C  s               188      9.925308   5 C  s         
    97     -7.516862   3 C  s               189     -7.515203   5 C  s         
   262      7.121566   6 C  d  2             78      6.773596   2 C  d  2      
 
 Vector   86  Occ=0.000000D+00  E= 4.130633D-01
[...]
     Transition Moments   YY  0.00014  YZ  0.16889  ZZ  0.00003
     Dipole Oscillator Strength                    0.0096573540
     Electric Quadrupole                           0.0000000029
     Magnetic Dipole                               0.0000000302
     Total Oscillator Strength                     0.0096573871
 
     Occ.   19 alpha a   ---  Virt.   26 alpha a    0.88409 X
     Occ.   19 alpha a   ---  Virt.   35 alpha a   -0.06443 X
     Occ.   19 alpha a   ---  Virt.   36 alpha a   -0.06664 X
     Occ.   20 alpha a   ---  Virt.   25 alpha a    0.12364 X
     Occ.   20 alpha a   ---  Virt.   26 alpha a   -0.42510 X
  ----------------------------------------------------------------------------
  Root  28         a              0.252699926 a.u.                6.8763 eV 
  <S2> =   1.8896
  ----------------------------------------------------------------------------
     Transition Moments    X -0.00002   Y -0.00001   Z  0.04879
     Transition Moments   XX  0.00000  XY  0.00001  XZ -0.38497
     Transition Moments   YY -0.00004  YZ  0.01090  ZZ -0.00002
     Dipole Oscillator Strength                    0.0004010476
     Electric Quadrupole                           0.0000000127
     Magnetic Dipole                               0.0000000105
     Total Oscillator Strength                     0.0004010708
 
     Occ.   19 alpha a   ---  Virt.   25 alpha a    0.23818 X
     Occ.   19 alpha a   ---  Virt.   26 alpha a    0.42513 X
     Occ.   20 alpha a   ---  Virt.   26 alpha a    0.86258 X
     Occ.   20 alpha a   ---  Virt.   35 alpha a   -0.05486 X
     Occ.   20 alpha a   ---  Virt.   36 alpha a   -0.05852 X
     Occ.   19 beta  a   ---  Virt.   26 beta  a   -0.06828 X
  ----------------------------------------------------------------------------
  Root  29         a              0.253990519 a.u.                6.9114 eV 
  <S2> =   1.6111
  ----------------------------------------------------------------------------
     Transition Moments    X -0.00006   Y  0.00002   Z -0.00564
     Transition Moments   XX  0.00003  XY -0.00004  XZ  0.49490
     Transition Moments   YY  0.00010  YZ  0.02874  ZZ  0.00003
     Dipole Oscillator Strength                    0.0000053910
     Electric Quadrupole                           0.0000000214
     Magnetic Dipole                               0.0000000110
     Total Oscillator Strength                     0.0000054234
 
     Occ.   20 alpha a   ---  Virt.   26 alpha a   -0.06855 X
     Occ.   19 beta  a   ---  Virt.   26 beta  a   -0.98496 X
     Occ.   19 beta  a   ---  Virt.   35 beta  a    0.05778 X
     Occ.   19 beta  a   ---  Virt.   36 beta  a    0.07392 X
     Occ.   20 beta  a   ---  Virt.   25 beta  a   -0.09654 X
  ----------------------------------------------------------------------------
  Root  30         a              0.254728974 a.u.                6.9315 eV 
  <S2> =   0.7699
  ----------------------------------------------------------------------------
     Transition Moments    X -1.50492   Y -0.10767   Z  0.00002
     Transition Moments   XX -0.03490  XY  0.18698  XZ -0.00004
     Transition Moments   YY -0.00723  YZ  0.00002  ZZ -0.00259
     Dipole Oscillator Strength                    0.3865726218
     Electric Quadrupole                           0.0000000031
     Magnetic Dipole                               0.0000000176
     Total Oscillator Strength                     0.3865726425
 
     Occ.   19 alpha a   ---  Virt.   22 alpha a   -0.37035 X
     Occ.   19 alpha a   ---  Virt.   22 alpha a    0.05173 Y
     Occ.   19 alpha a   ---  Virt.   23 alpha a    0.10353 X
     Occ.   20 alpha a   ---  Virt.   22 alpha a    0.08889 X
     Occ.   20 alpha a   ---  Virt.   23 alpha a    0.41553 X
     Occ.   20 alpha a   ---  Virt.   29 alpha a   -0.13678 X
     Occ.   21 alpha a   ---  Virt.   25 alpha a    0.07578 X
     Occ.   21 alpha a   ---  Virt.   27 alpha a   -0.38397 X
     Occ.   13 beta  a   ---  Virt.   21 beta  a    0.12826 X
     Occ.   15 beta  a   ---  Virt.   21 beta  a    0.27163 X
     Occ.   19 beta  a   ---  Virt.   24 beta  a    0.49941 X
     Occ.   19 beta  a   ---  Virt.   29 beta  a   -0.13928 X
     Occ.   20 beta  a   ---  Virt.   22 beta  a   -0.34920 X
     Occ.   20 beta  a   ---  Virt.   22 beta  a    0.05623 Y
  ----------------------------------------------------------------------------
  Root  31         a              0.255324669 a.u.                6.9477 eV 
  <S2> =   0.8003
  ----------------------------------------------------------------------------
     Transition Moments    X -0.06948   Y  0.63370   Z  0.00000
     Transition Moments   XX  0.65076  XY -0.07292  XZ -0.00002
     Transition Moments   YY  1.88752  YZ  0.00003  ZZ  0.14713
     Dipole Oscillator Strength                    0.0691763715
     Electric Quadrupole                           0.0000000716
     Magnetic Dipole                               0.0000000000
     Total Oscillator Strength                     0.0691764430
 
     Occ.   19 alpha a   ---  Virt.   23 alpha a   -0.10066 X
     Occ.   20 alpha a   ---  Virt.   22 alpha a   -0.10977 X
     Occ.   21 alpha a   ---  Virt.   26 alpha a   -0.18441 X
     Occ.   21 alpha a   ---  Virt.   28 alpha a    0.91004 X
     Occ.   21 alpha a   ---  Virt.   30 alpha a    0.12826 X
     Occ.   21 alpha a   ---  Virt.   31 alpha a    0.16292 X
     Occ.   21 alpha a   ---  Virt.   48 alpha a   -0.05654 X
     Occ.   16 beta  a   ---  Virt.   21 beta  a   -0.18741 X
     Occ.   19 beta  a   ---  Virt.   22 beta  a   -0.10953 X
     Occ.   20 beta  a   ---  Virt.   24 beta  a   -0.09620 X
  ----------------------------------------------------------------------------
  Root  32         a              0.260671689 a.u.                7.0932 eV 
  <S2> =   0.7993
  ----------------------------------------------------------------------------
     Transition Moments    X -0.00001   Y  0.00001   Z -0.09570
     Transition Moments   XX  0.00001  XY  0.00001  XZ  0.04350
     Transition Moments   YY  0.00003  YZ -0.70603  ZZ -0.00000
     Dipole Oscillator Strength                    0.0015916297
     Electric Quadrupole                           0.0000000472
     Magnetic Dipole                               0.0000000334
     Total Oscillator Strength                     0.0015917103
 
     Occ.   21 alpha a   ---  Virt.   29 alpha a    0.97946 X
     Occ.   21 alpha a   ---  Virt.   33 alpha a    0.18002 X
  ----------------------------------------------------------------------------
  Root  33         a              0.265420076 a.u.                7.2225 eV 
  <S2> =   1.7809
  ----------------------------------------------------------------------------
     Transition Moments    X -0.00001   Y -0.00001   Z -0.00035
     Transition Moments   XX  0.00006  XY -0.00002  XZ -0.54493
     Transition Moments   YY  0.00003  YZ -0.04836  ZZ  0.00004
     Dipole Oscillator Strength                    0.0000000220
     Electric Quadrupole                           0.0000000298
     Magnetic Dipole                               0.0000000005
     Total Oscillator Strength                     0.0000000524
 
     Occ.   20 beta  a   ---  Virt.   27 beta  a   -0.99106 X
     Occ.   20 beta  a   ---  Virt.   38 beta  a    0.09650 X
  ----------------------------------------------------------------------------
  Root  34         a              0.267151066 a.u.                7.2696 eV 
  <S2> =   0.8199
  ----------------------------------------------------------------------------
     Transition Moments    X  0.08358   Y -1.19807   Z  0.00000
     Transition Moments   XX  0.01124  XY -0.04352  XZ  0.00001
     Transition Moments   YY  0.69803  YZ  0.00006  ZZ  0.04397
     Dipole Oscillator Strength                    0.2568850765
     Electric Quadrupole                           0.0000000154
     Magnetic Dipole                               0.0000000000
     Total Oscillator Strength                     0.2568850920
 
     Occ.   17 alpha a   ---  Virt.   23 alpha a   -0.08500 X
     Occ.   19 alpha a   ---  Virt.   22 alpha a    0.05339 X
     Occ.   19 alpha a   ---  Virt.   23 alpha a    0.29635 X
     Occ.   19 alpha a   ---  Virt.   29 alpha a    0.15648 X
     Occ.   20 alpha a   ---  Virt.   22 alpha a    0.21659 X
     Occ.   20 alpha a   ---  Virt.   23 alpha a   -0.07230 X
     Occ.   21 alpha a   ---  Virt.   28 alpha a    0.30015 X
     Occ.   21 alpha a   ---  Virt.   30 alpha a   -0.43321 X
     Occ.   21 alpha a   ---  Virt.   31 alpha a    0.08103 X
     Occ.   14 beta  a   ---  Virt.   21 beta  a   -0.08776 X
     Occ.   16 beta  a   ---  Virt.   21 beta  a    0.50003 X
     Occ.   19 beta  a   ---  Virt.   22 beta  a    0.22353 X
     Occ.   20 beta  a   ---  Virt.   24 beta  a    0.30700 X
     Occ.   20 beta  a   ---  Virt.   29 beta  a    0.34108 X
  ----------------------------------------------------------------------------
  Root  35         a              0.270832055 a.u.                7.3697 eV 
  <S2> =   2.7022
  ----------------------------------------------------------------------------
     Transition Moments    X -0.00001   Y -0.00001   Z -0.00944
     Transition Moments   XX  0.00001  XY -0.00001  XZ -0.04749
     Transition Moments   YY  0.00002  YZ -0.14397  ZZ  0.00000
     Dipole Oscillator Strength                    0.0000160812
     Electric Quadrupole                           0.0000000024
     Magnetic Dipole                               0.0000000000
     Total Oscillator Strength                     0.0000160837
 
     Occ.   19 alpha a   ---  Virt.   27 alpha a    0.10779 X
     Occ.   20 alpha a   ---  Virt.   27 alpha a    0.78259 X
     Occ.   20 alpha a   ---  Virt.   38 alpha a   -0.08632 X
     Occ.   19 beta  a   ---  Virt.   27 beta  a   -0.58630 X
     Occ.   19 beta  a   ---  Virt.   38 beta  a    0.06901 X
     Occ.   20 beta  a   ---  Virt.   28 beta  a   -0.05508 X
     Occ.   20 beta  a   ---  Virt.   30 beta  a   -0.06144 X
  ----------------------------------------------------------------------------
  Root  36         a              0.271244330 a.u.                7.3809 eV 
  <S2> =   2.7408
  ----------------------------------------------------------------------------
     Transition Moments    X -0.04848   Y  0.00217   Z  0.00000
     Transition Moments   XX -0.01862  XY  0.02627  XZ -0.00001
     Transition Moments   YY  0.01557  YZ  0.00003  ZZ -0.00381
     Dipole Oscillator Strength                    0.0004258541
     Electric Quadrupole                           0.0000000001
     Magnetic Dipole                               0.0000000018
     Total Oscillator Strength                     0.0004258560
 
     Occ.   17 alpha a   ---  Virt.   22 alpha a   -0.59820 X
     Occ.   17 alpha a   ---  Virt.   41 alpha a    0.05238 X
     Occ.   19 alpha a   ---  Virt.   32 alpha a    0.08098 X
     Occ.   19 alpha a   ---  Virt.   44 alpha a    0.05481 X
     Occ.   20 alpha a   ---  Virt.   29 alpha a   -0.15732 X
     Occ.   20 alpha a   ---  Virt.   44 alpha a    0.22066 X
     Occ.   20 alpha a   ---  Virt.   47 alpha a   -0.16883 X
     Occ.   17 beta  a   ---  Virt.   22 beta  a    0.64441 X
     Occ.   17 beta  a   ---  Virt.   41 beta  a   -0.05432 X
     Occ.   19 beta  a   ---  Virt.   29 beta  a    0.10406 X
     Occ.   19 beta  a   ---  Virt.   44 beta  a   -0.20066 X
     Occ.   19 beta  a   ---  Virt.   47 beta  a    0.16668 X
     Occ.   20 beta  a   ---  Virt.   31 beta  a   -0.10173 X
  ----------------------------------------------------------------------------
  Root  37         a              0.271694821 a.u.                7.3932 eV 
  <S2> =   1.0359
  ----------------------------------------------------------------------------
     Transition Moments    X  0.03522   Y -0.52901   Z  0.00000
     Transition Moments   XX  1.06377  XY  0.11672  XZ -0.00001
     Transition Moments   YY -0.75895  YZ  0.00001  ZZ  0.24131
     Dipole Oscillator Strength                    0.0509137740
     Electric Quadrupole                           0.0000000904
     Magnetic Dipole                               0.0000000000
     Total Oscillator Strength                     0.0509138645
 
     Occ.   17 alpha a   ---  Virt.   23 alpha a   -0.06378 X
     Occ.   19 alpha a   ---  Virt.   23 alpha a    0.09348 X
     Occ.   21 alpha a   ---  Virt.   30 alpha a    0.79914 X
     Occ.   21 alpha a   ---  Virt.   31 alpha a   -0.20697 X
     Occ.   21 alpha a   ---  Virt.   35 alpha a    0.07541 X
     Occ.   21 alpha a   ---  Virt.   40 alpha a   -0.05688 X
     Occ.   14 beta  a   ---  Virt.   21 beta  a   -0.06504 X
     Occ.   16 beta  a   ---  Virt.   21 beta  a    0.19597 X
     Occ.   19 beta  a   ---  Virt.   22 beta  a    0.06206 X
     Occ.   20 beta  a   ---  Virt.   24 beta  a    0.10104 X
     Occ.   20 beta  a   ---  Virt.   29 beta  a    0.47409 X
  ----------------------------------------------------------------------------
  Root  38         a              0.271810467 a.u.                7.3963 eV 
  <S2> =   0.8682
  ----------------------------------------------------------------------------
     Transition Moments    X -0.00001   Y  0.00004   Z -0.02422
     Transition Moments   XX -0.00007  XY -0.00007  XZ -0.03970
     Transition Moments   YY  0.00012  YZ -0.85986  ZZ -0.00003
     Dipole Oscillator Strength                    0.0001063016
     Electric Quadrupole                           0.0000000792
     Magnetic Dipole                               0.0000000037
     Total Oscillator Strength                     0.0001063845
 
     Occ.   20 alpha a   ---  Virt.   27 alpha a    0.59089 X
     Occ.   20 alpha a   ---  Virt.   38 alpha a   -0.05074 X
     Occ.   19 beta  a   ---  Virt.   27 beta  a    0.78765 X
     Occ.   19 beta  a   ---  Virt.   38 beta  a   -0.07388 X
     Occ.   20 beta  a   ---  Virt.   28 beta  a   -0.12050 X
  ----------------------------------------------------------------------------
  Root  39         a              0.272309557 a.u.                7.4099 eV 
  <S2> =   1.6925
  ----------------------------------------------------------------------------
     Transition Moments    X -0.00000   Y  0.00000   Z  0.00826
     Transition Moments   XX  0.00007  XY -0.00001  XZ -0.55027
     Transition Moments   YY -0.00000  YZ  0.17385  ZZ  0.00003
     Dipole Oscillator Strength                    0.0000123918
     Electric Quadrupole                           0.0000000358
     Magnetic Dipole                               0.0000000013
     Total Oscillator Strength                     0.0000124289
 
     Occ.   19 alpha a   ---  Virt.   27 alpha a   -0.97851 X
     Occ.   19 alpha a   ---  Virt.   38 alpha a    0.09469 X
     Occ.   20 alpha a   ---  Virt.   27 alpha a    0.06956 X
     Occ.   19 beta  a   ---  Virt.   27 beta  a   -0.09776 X
     Occ.   20 beta  a   ---  Virt.   28 beta  a    0.09462 X
  ----------------------------------------------------------------------------
  Root  40         a              0.272522508 a.u.                7.4157 eV 
  <S2> =   1.9591
  ----------------------------------------------------------------------------
     Transition Moments    X -0.00001   Y  0.00004   Z  0.04113
     Transition Moments   XX  0.00002  XY  0.00002  XZ  0.00400
     Transition Moments   YY  0.00006  YZ  0.43282  ZZ  0.00001
     Dipole Oscillator Strength                    0.0003074174
     Electric Quadrupole                           0.0000000202
     Magnetic Dipole                               0.0000000054
     Total Oscillator Strength                     0.0003074430
 
     Occ.   19 alpha a   ---  Virt.   27 alpha a    0.09739 X
     Occ.   19 alpha a   ---  Virt.   28 alpha a   -0.11181 X
     Occ.   20 alpha a   ---  Virt.   27 alpha a    0.11792 X
     Occ.   17 beta  a   ---  Virt.   21 beta  a   -0.05462 X
     Occ.   19 beta  a   ---  Virt.   27 beta  a    0.06814 X
     Occ.   20 beta  a   ---  Virt.   28 beta  a    0.96568 X
     Occ.   20 beta  a   ---  Virt.   30 beta  a    0.05574 X
     Occ.   20 beta  a   ---  Virt.   32 beta  a    0.07447 X
     Occ.   20 beta  a   ---  Virt.   43 beta  a    0.08062 X
 
              Target root =      1
          Target symmetry = none
      Ground state energy =   -231.646317823656
        Excitation energy =      0.106130587867
     Excited state energy =   -231.540187235789
 
  stored tddft:energy   -231.540187235789     

 Task  times  cpu:     2871.0s     wall:     2975.6s
 
 
                                NWChem Input Module
                                -------------------
 
 
 Summary of allocated global arrays
-----------------------------------
  No active global arrays



                         GA Statistics for process    0
                         ------------------------------

       create   destroy   get      put      acc     scatter   gather  read&inc
calls: 9466     9466     9.97e+06 4.03e+06 2.59e+06 5640        0      307     
number of processes/call 1.32e+00 1.75e+00 1.93e+00 0.00e+00 0.00e+00
bytes total:             9.06e+10 1.09e+10 9.84e+10 6.26e+04 0.00e+00 2.46e+03
bytes remote:            6.75e+10 1.08e+09 9.39e+10 0.00e+00 0.00e+00 0.00e+00
Max memory consumed for GA by this process: 205086464 bytes
 
MA_summarize_allocated_blocks: starting scan ...
MA_summarize_allocated_blocks: scan completed: 0 heap blocks, 0 stack blocks
MA usage statistics:

	allocation statistics:
					      heap	     stack
					      ----	     -----
	current number of blocks	         0	         0
	maximum number of blocks	        20	        52
	current total bytes		         0	         0
	maximum total bytes		   1166000	  68276408
	maximum total K-bytes		      1166	     68277
	maximum total M-bytes		         2	        69
 
 
                                     CITATION
                                     --------
                Please cite the following reference when publishing
                           results obtained with NWChem:
 
                 M. Valiev, E.J. Bylaska, N. Govind, K. Kowalski,
              T.P. Straatsma, H.J.J. van Dam, D. Wang, J. Nieplocha,
                        E. Apra, T.L. Windus, W.A. de Jong
                 "NWChem: a comprehensive and scalable open-source
                  solution for large scale molecular simulations"
                      Comput. Phys. Commun. 181, 1477 (2010)
                           doi:10.1016/j.cpc.2010.04.018
 
                                      AUTHORS
                                      -------
          E. Apra, E. J. Bylaska, W. A. de Jong, N. Govind, K. Kowalski,
       T. P. Straatsma, M. Valiev, H. J. J. van Dam, D. Wang, T. L. Windus,
        J. Hammond, J. Autschbach, K. Bhaskaran-Nair, J. Brabec, K. Lopata,
    S. A. Fischer, S. Krishnamoorthy, M. Jacquelin, W. Ma, M. Klemm, O. Villa,
      Y. Chen, V. Anisimov, F. Aquino, S. Hirata, M. T. Hackler, V. Konjkov,
            D. Mejia-Rodriguez, T. Risthaus, M. Malagoli, A. Marenich,
   A. Otero-de-la-Roza, J. Mullin, P. Nichols, R. Peverati, J. Pittner, Y. Zhao,
        P.-D. Fan, A. Fonari, M. J. Williamson, R. J. Harrison, J. R. Rehr,
      M. Dupuis, D. Silverstein, D. M. A. Smith, J. Nieplocha, V. Tipparaju,
    M. Krishnan, B. E. Van Kuiken, A. Vazquez-Mayagoitia, L. Jensen, M. Swart,
      Q. Wu, T. Van Voorhis, A. A. Auer, M. Nooijen, L. D. Crosby, E. Brown,
      G. Cisneros, G. I. Fann, H. Fruchtl, J. Garza, K. Hirao, R. A. Kendall,
      J. A. Nichols, K. Tsemekhman, K. Wolinski, J. Anchell, D. E. Bernholdt,
      P. Borowski, T. Clark, D. Clerc, H. Dachsel, M. J. O. Deegan, K. Dyall,
    D. Elwood, E. Glendening, M. Gutowski, A. C. Hess, J. Jaffe, B. G. Johnson,
     J. Ju, R. Kobayashi, R. Kutteh, Z. Lin, R. Littlefield, X. Long, B. Meng,
      T. Nakajima, S. Niu, L. Pollack, M. Rosing, K. Glaesemann, G. Sandrone,
      M. Stave, H. Taylor, G. Thomas, J. H. van Lenthe, A. T. Wong, Z. Zhang.

 Total times  cpu:     2871.0s     wall:     2976.5s
