 argument  1 = /storage/home/j/jbb5516/normalModes/mode1071.14-p.nw
 


============================== echo of input deck ==============================
echo
start

title "None"

geometry
C    -0.08730816    1.38831460    0.00000005
C    -1.26760697    0.69172211   -0.00000002
C    -1.16758106   -0.70519174   -0.00000002
C     0.08330421   -1.31596489    0.00000004
C     1.24625290   -0.55216898   -0.00000001
C     1.17041188    0.84409937    0.00000005
H    -2.23120414    1.18344380   -0.00000010
H    -2.06699372   -1.30768162   -0.00000009
H     0.15349260   -2.39521268   -0.00000000
H     2.21534172   -1.03451548   -0.00000013
H     2.06702043    1.44926064   -0.00000010
symmetry c1
end

basis spherical
 * library "aug-cc-pvtz"
end

dft
 direct
 mult 2
 iterations 500
 xc b3lyp
end

tddft
 nroots 40
 notriplet
 algorithm 1
end
task tddft energy
================================================================================


                                         
                                         
 
 
              Northwest Computational Chemistry Package (NWChem) 6.8
              ------------------------------------------------------
 
 
                    Environmental Molecular Sciences Laboratory
                       Pacific Northwest National Laboratory
                                Richland, WA 99352
 
                              Copyright (c) 1994-2017
                       Pacific Northwest National Laboratory
                            Battelle Memorial Institute
 
             NWChem is an open-source computational chemistry package
                        distributed under the terms of the
                      Educational Community License (ECL) 2.0
             A copy of the license is included with this distribution
                              in the LICENSE.TXT file
 
                                  ACKNOWLEDGMENT
                                  --------------

            This software and its documentation were developed at the
            EMSL at Pacific Northwest National Laboratory, a multiprogram
            national laboratory, operated for the U.S. Department of Energy
            by Battelle under Contract Number DE-AC05-76RL01830. Support
            for this work was provided by the Department of Energy Office
            of Biological and Environmental Research, Office of Basic
            Energy Sciences, and the Office of Advanced Scientific Computing.


           Job information
           ---------------

    hostname        = comp-sc-0035.acib.production.int.aci.ics.psu.edu
    program         = /gpfs/group/lxj18/default/jeffprograms/nwchem-6.8.1/bin/LINUX64/nwchem
    date            = Sun Sep 20 14:46:29 2020

    compiled        = Wed_Oct_03_14:08:39_2018
    source          = /gpfs/group/lxj18/default/jeffprograms/nwchem-6.8.1
    nwchem branch   = 6.8.1
    nwchem revision = v6.8-143-gdb0d964
    ga revision     = 5.6.5
    use scalapack   = F
    input           = /storage/home/j/jbb5516/normalModes/mode1071.14-p.nw
    prefix          = mode1071.14-p.
    data base       = ./mode1071.14-p.db
    status          = startup
    nproc           =       20
    time left       =     -1s



           Memory information
           ------------------

    heap     =   13107196 doubles =    100.0 Mbytes
    stack    =   13107201 doubles =    100.0 Mbytes
    global   =   26214400 doubles =    200.0 Mbytes (distinct from heap & stack)
    total    =   52428797 doubles =    400.0 Mbytes
    verify   = yes
    hardfail = no 


           Directory information
           ---------------------
 
  0 permanent = .
  0 scratch   = .
 
 
 
 
                                NWChem Input Module
                                -------------------
 
 
                                       None
                                       ----

 Scaling coordinates for geometry "geometry" by  1.889725989
 (inverse scale =  0.529177249)

 Turning off AUTOSYM since
 SYMMETRY directive was detected!
 

          ------
          auto-z
          ------
 
 
                             Geometry "geometry" -> ""
                             -------------------------
 
 Output coordinates in angstroms (scale by  1.889725989 to convert to a.u.)
 
  No.       Tag          Charge          X              Y              Z
 ---- ---------------- ---------- -------------- -------------- --------------
    1 C                    6.0000    -0.08736898     1.38831076     0.00000005
    2 C                    6.0000    -1.26766779     0.69171827    -0.00000002
    3 C                    6.0000    -1.16764188    -0.70519558    -0.00000002
    4 C                    6.0000     0.08324339    -1.31596873     0.00000004
    5 C                    6.0000     1.24619208    -0.55217282    -0.00000001
    6 C                    6.0000     1.17035106     0.84409553     0.00000005
    7 H                    1.0000    -2.23126496     1.18343996    -0.00000010
    8 H                    1.0000    -2.06705454    -1.30768546    -0.00000009
    9 H                    1.0000     0.15343178    -2.39521652    -0.00000000
   10 H                    1.0000     2.21528090    -1.03451932    -0.00000013
   11 H                    1.0000     2.06695961     1.44925680    -0.00000010
 
      Atomic Mass 
      ----------- 
 
      C                 12.000000
      H                  1.007825
 

 Effective nuclear repulsion energy (a.u.)     195.0639792540

            Nuclear Dipole moment (a.u.) 
            ----------------------------
        X                 Y               Z
 ---------------- ---------------- ----------------
    -0.0000000000     0.0000000000     0.0000000000
 


                                Z-matrix (autoz)
                                -------- 

 Units are Angstrom for bonds and degrees for angles
 
      Type          Name      I     J     K     L     M      Value
      ----------- --------  ----- ----- ----- ----- ----- ----------
    1 Stretch                  1     2                       1.37053
    2 Stretch                  1     6                       1.37041
    3 Stretch                  2     3                       1.40049
    4 Stretch                  2     7                       1.08181
    5 Stretch                  3     4                       1.39203
    6 Stretch                  3     8                       1.08256
    7 Stretch                  4     5                       1.39134
    8 Stretch                  4     9                       1.08153
    9 Stretch                  5     6                       1.39833
   10 Stretch                  5    10                       1.08249
   11 Stretch                  6    11                       1.08172
   12 Bend                     1     2     3               116.45272
   13 Bend                     1     2     7               122.41648
   14 Bend                     1     6     5               116.50720
   15 Bend                     1     6    11               122.58470
   16 Bend                     2     1     6               126.05348
   17 Bend                     2     3     4               120.12066
   18 Bend                     2     3     8               119.72129
   19 Bend                     3     2     7               121.13080
   20 Bend                     3     4     5               120.67909
   21 Bend                     3     4     9               119.74596
   22 Bend                     4     3     8               120.15805
   23 Bend                     4     5     6               120.18684
   24 Bend                     4     5    10               120.24308
   25 Bend                     5     4     9               119.57495
   26 Bend                     5     6    11               120.90810
   27 Bend                     6     5    10               119.57007
   28 Torsion                  1     2     3     4           0.00000
   29 Torsion                  1     2     3     8        -180.00000
   30 Torsion                  1     6     5     4           0.00000
   31 Torsion                  1     6     5    10         180.00000
   32 Torsion                  2     1     6     5           0.00000
   33 Torsion                  2     1     6    11         180.00000
   34 Torsion                  2     3     4     5           0.00000
   35 Torsion                  2     3     4     9        -180.00000
   36 Torsion                  3     2     1     6           0.00000
   37 Torsion                  3     4     5     6           0.00000
   38 Torsion                  3     4     5    10        -180.00000
   39 Torsion                  4     3     2     7         180.00000
   40 Torsion                  4     5     6    11        -180.00000
   41 Torsion                  5     4     3     8         180.00000
   42 Torsion                  6     1     2     7        -180.00000
   43 Torsion                  6     5     4     9        -180.00000
   44 Torsion                  7     2     3     8           0.00000
   45 Torsion                  8     3     4     9           0.00000
   46 Torsion                  9     4     5    10           0.00000
   47 Torsion                 10     5     6    11           0.00000
 
 
            XYZ format geometry
            -------------------
    11
 geometry
 C                    -0.08736898     1.38831076     0.00000005
 C                    -1.26766779     0.69171827    -0.00000002
 C                    -1.16764188    -0.70519558    -0.00000002
 C                     0.08324339    -1.31596873     0.00000004
 C                     1.24619208    -0.55217282    -0.00000001
 C                     1.17035106     0.84409553     0.00000005
 H                    -2.23126496     1.18343996    -0.00000010
 H                    -2.06705454    -1.30768546    -0.00000009
 H                     0.15343178    -2.39521652    -0.00000000
 H                     2.21528090    -1.03451932    -0.00000013
 H                     2.06695961     1.44925680    -0.00000010
 
 ==============================================================================
                                internuclear distances
 ------------------------------------------------------------------------------
       center one      |      center two      | atomic units |  angstroms
 ------------------------------------------------------------------------------
    2 C                |   1 C                |     2.58992  |     1.37053
    3 C                |   2 C                |     2.64654  |     1.40049
    4 C                |   3 C                |     2.63056  |     1.39203
    5 C                |   4 C                |     2.62926  |     1.39134
    6 C                |   1 C                |     2.58970  |     1.37041
    6 C                |   5 C                |     2.64245  |     1.39833
    7 H                |   2 C                |     2.04432  |     1.08181
    8 H                |   3 C                |     2.04574  |     1.08256
    9 H                |   4 C                |     2.04379  |     1.08153
   10 H                |   5 C                |     2.04562  |     1.08249
   11 H                |   6 C                |     2.04416  |     1.08172
 ------------------------------------------------------------------------------
                         number of included internuclear distances:         11
 ==============================================================================



 ==============================================================================
                                 internuclear angles
 ------------------------------------------------------------------------------
        center 1       |       center 2       |       center 3       |  degrees
 ------------------------------------------------------------------------------
    2 C                |   1 C                |   6 C                |   126.05
    1 C                |   2 C                |   3 C                |   116.45
    1 C                |   2 C                |   7 H                |   122.42
    3 C                |   2 C                |   7 H                |   121.13
    2 C                |   3 C                |   4 C                |   120.12
    2 C                |   3 C                |   8 H                |   119.72
    4 C                |   3 C                |   8 H                |   120.16
    3 C                |   4 C                |   5 C                |   120.68
    3 C                |   4 C                |   9 H                |   119.75
    5 C                |   4 C                |   9 H                |   119.57
    4 C                |   5 C                |   6 C                |   120.19
    4 C                |   5 C                |  10 H                |   120.24
    6 C                |   5 C                |  10 H                |   119.57
    1 C                |   6 C                |   5 C                |   116.51
    1 C                |   6 C                |  11 H                |   122.58
    5 C                |   6 C                |  11 H                |   120.91
 ------------------------------------------------------------------------------
                            number of included internuclear angles:         16
 ==============================================================================





 Summary of "ao basis" -> "" (spherical)
 ------------------------------------------------------------------------------
       Tag                 Description            Shells   Functions and Types
 ---------------- ------------------------------  ------  ---------------------
 *                        aug-cc-pvtz                 on all atoms 


 
                                 NWChem DFT Module
                                 -----------------
 
 
                                       None
 
 
                      Basis "ao basis" -> "ao basis" (spherical)
                      -----
  C (Carbon)
  ----------
            Exponent  Coefficients 
       -------------- ---------------------------------------------------------
  1 S  8.23600000E+03  0.000531
  1 S  1.23500000E+03  0.004108
  1 S  2.80800000E+02  0.021087
  1 S  7.92700000E+01  0.081853
  1 S  2.55900000E+01  0.234817
  1 S  8.99700000E+00  0.434401
  1 S  3.31900000E+00  0.346129
  1 S  3.64300000E-01 -0.008983
 
  2 S  8.23600000E+03 -0.000113
  2 S  1.23500000E+03 -0.000878
  2 S  2.80800000E+02 -0.004540
  2 S  7.92700000E+01 -0.018133
  2 S  2.55900000E+01 -0.055760
  2 S  8.99700000E+00 -0.126895
  2 S  3.31900000E+00 -0.170352
  2 S  3.64300000E-01  0.598684
 
  3 S  9.05900000E-01  1.000000
 
  4 S  1.28500000E-01  1.000000
 
  5 S  4.40200000E-02  1.000000
 
  6 P  1.87100000E+01  0.014031
  6 P  4.13300000E+00  0.086866
  6 P  1.20000000E+00  0.290216
 
  7 P  3.82700000E-01  1.000000
 
  8 P  1.20900000E-01  1.000000
 
  9 P  3.56900000E-02  1.000000
 
 10 D  1.09700000E+00  1.000000
 
 11 D  3.18000000E-01  1.000000
 
 12 D  1.00000000E-01  1.000000
 
 13 F  7.61000000E-01  1.000000
 
 14 F  2.68000000E-01  1.000000
 
  H (Hydrogen)
  ------------
            Exponent  Coefficients 
       -------------- ---------------------------------------------------------
  1 S  3.38700000E+01  0.006068
  1 S  5.09500000E+00  0.045308
  1 S  1.15900000E+00  0.202822
 
  2 S  3.25800000E-01  1.000000
 
  3 S  1.02700000E-01  1.000000
 
  4 S  2.52600000E-02  1.000000
 
  5 P  1.40700000E+00  1.000000
 
  6 P  3.88000000E-01  1.000000
 
  7 P  1.02000000E-01  1.000000
 
  8 D  1.05700000E+00  1.000000
 
  9 D  2.47000000E-01  1.000000
 


 Summary of "ao basis" -> "ao basis" (spherical)
 ------------------------------------------------------------------------------
       Tag                 Description            Shells   Functions and Types
 ---------------- ------------------------------  ------  ---------------------
 C                        aug-cc-pvtz               14       46   5s4p3d2f
 H                        aug-cc-pvtz                9       23   4s3p2d




 Summary of "ao basis" -> "ao basis" (spherical)
 ------------------------------------------------------------------------------
       Tag                 Description            Shells   Functions and Types
 ---------------- ------------------------------  ------  ---------------------
 C                        aug-cc-pvtz               14       46   5s4p3d2f
 H                        aug-cc-pvtz                9       23   4s3p2d


  Caching 1-el integrals 
 
            General Information
            -------------------
          SCF calculation type: DFT
          Wavefunction type:  spin polarized.
          No. of atoms     :    11
          No. of electrons :    41
           Alpha electrons :    21
            Beta electrons :    20
          Charge           :     0
          Spin multiplicity:     2
          Use of symmetry is: off; symmetry adaption is: off
          Maximum number of iterations: 500
          This is a Direct SCF calculation.
          AO basis - number of functions:   391
                     number of shells:   129
          Convergence on energy requested:  1.00D-06
          Convergence on density requested:  1.00D-05
          Convergence on gradient requested:  5.00D-04
 
              XC Information
              --------------
                         B3LYP Method XC Potential
                     Hartree-Fock (Exact) Exchange  0.200          
                        Slater Exchange Functional  0.800 local    
                    Becke 1988 Exchange Functional  0.720 non-local
              Lee-Yang-Parr Correlation Functional  0.810          
                  VWN I RPA Correlation Functional  0.190 local    
 
             Grid Information
             ----------------
          Grid used for XC integration:  medium    
          Radial quadrature: Mura-Knowles        
          Angular quadrature: Lebedev. 
          Tag              B.-S. Rad. Rad. Pts. Rad. Cut. Ang. Pts.
          ---              ---------- --------- --------- ---------
          C                   0.70       49          15.0       434
          H                   0.35       45          17.0       434
          Grid pruning is: on 
          Number of quadrature shells:   519
          Spatial weights used:  Erf1
 
          Convergence Information
          -----------------------
          Convergence aids based upon iterative change in 
          total energy or number of iterations. 
          Levelshifting, if invoked, occurs when the 
          HOMO/LUMO gap drops below (HL_TOL):  1.00D-02
          DIIS, if invoked, will attempt to extrapolate 
          using up to (NFOCK): 10 stored Fock matrices.

                    Damping( 0%)  Levelshifting(0.5)       DIIS
                  --------------- ------------------- ---------------
          dE  on:    start            ASAP                start   
          dE off:    2 iters        500 iters           500 iters 

 
      Screening Tolerance Information
      -------------------------------
          Density screening/tol_rho:  1.00D-10
          AO Gaussian exp screening on grid/accAOfunc:  14
          CD Gaussian exp screening on grid/accCDfunc:  20
          XC Gaussian exp screening on grid/accXCfunc:  20
          Schwarz screening/accCoul:  1.00D-08

 
 WARNING : Found     7 linear dependencies 
 S eigenvalue threshold:     1.00000E-05
 Smallest S eigenvalue :     1.46345E-06
 Largest  S eigenvalue :     7.76575E-06
 

 !! The overlap matrix has   7 vectors deemed linearly dependent with
    eigenvalues:
 1.46D-06 2.24D-06 2.83D-06 3.54D-06 5.27D-06 5.95D-06 7.77D-06
 
 
      Superposition of Atomic Density Guess
      -------------------------------------
 
 Sum of atomic energies:        -228.52307259
 
      Non-variational initial energy
      ------------------------------

 Total energy =    -232.667208
 1-e energy   =    -691.328471
 2-e energy   =     263.597283
 HOMO         =      -0.183326
 LUMO         =      -0.022268
 
   Time after variat. SCF:      8.9
   Time prior to 1st pass:      8.9

 Grid_pts file          = ./mode1071.14-p.gridpts.00
 Record size in doubles =  12289        No. of grid_pts per rec  =   3070
 Max. records in memory =      6        Max. recs in file   = 221727001

 Grid integrated density:      40.999765434125
 Requested integration accuracy:   0.10E-05

           Memory utilization after 1st SCF pass: 
           Heap Space remaining (MW):       12.96            12961276
          Stack Space remaining (MW):       13.10            13103684

   convergence    iter        energy       DeltaE   RMS-Dens  Diis-err    time
 ---------------- ----- ----------------- --------- --------- ---------  ------
 d= 0,ls=0.0,diis     1   -231.5816794957 -4.27D+02  6.22D-02  2.09D-01    19.6
                                                     7.04D-02  1.96D-01
 d= 0,ls=0.0,diis     2   -231.6398143466 -5.81D-02  6.13D-02  1.22D-02    30.2
                                                     6.93D-02  1.25D-02
 d= 0,ls=0.0,diis     3   -231.6446005185 -4.79D-03  1.28D-03  3.45D-03    40.9
                                                     1.39D-03  3.51D-03
 d= 0,ls=0.0,diis     4   -231.6457554101 -1.15D-03  2.05D-04  1.14D-03    51.6
                                                     2.09D-04  1.08D-03
 d= 0,ls=0.0,diis     5   -231.6462807340 -5.25D-04  3.34D-05  4.73D-05    62.3
                                                     3.06D-05  5.32D-05
  Resetting Diis
 d= 0,ls=0.0,diis     6   -231.6463086201 -2.79D-05  1.09D-05  1.26D-05    73.0
                                                     1.05D-05  1.10D-05
 d= 0,ls=0.0,diis     7   -231.6463170239 -8.40D-06  8.24D-06  2.61D-06    83.8
                                                     7.57D-06  2.66D-06
 d= 0,ls=0.0,diis     8   -231.6463177124 -6.88D-07  3.16D-06  7.01D-06    94.5
                                                     2.97D-06  6.57D-06


         Total DFT energy =     -231.646317712428
      One electron energy =     -696.561332570594
           Coulomb energy =      304.260169118344
    Exchange-Corr. energy =      -34.409133514154
 Nuclear repulsion energy =      195.063979253975

 Numeric. integr. density =       40.999984429349

     Total iterative time =     85.6s


 
                    DFT Final Alpha Molecular Orbital Analysis
                    ------------------------------------------
 
 Vector    1  Occ=1.000000D+00  E=-1.020521D+01
              MO Center= -8.7D-02,  1.4D+00,  4.8D-08, r^2= 3.0D-02
   Bfn.  Coefficient  Atom+Function         Bfn.  Coefficient  Atom+Function  
  ----- ------------  ---------------      ----- ------------  ---------------
     1      0.984158   1 C  s                 3      0.058846   1 C  s         
    50     -0.038612   2 C  s               234     -0.038170   6 C  s         
   279      0.038147   7 H  s               143      0.037885   4 C  s         
   371      0.037751  11 H  s               235     -0.030766   6 C  s         
    51     -0.030585   2 C  s                47      0.025671   2 C  s         
 
 Vector    2  Occ=1.000000D+00  E=-1.019195D+01
              MO Center= -1.2D+00, -6.4D-01, -2.4D-08, r^2= 1.2D-01
   Bfn.  Coefficient  Atom+Function         Bfn.  Coefficient  Atom+Function  
  ----- ------------  ---------------      ----- ------------  ---------------
    93      0.962997   3 C  s                47      0.208296   2 C  s         
   142     -0.072106   4 C  s               302      0.059533   8 H  s         
    95      0.057456   3 C  s               234      0.053764   6 C  s         
   371     -0.043455  11 H  s               139      0.042896   4 C  s         
   235      0.042200   6 C  s               325      0.036779   9 H  s         
 
 Vector    3  Occ=1.000000D+00  E=-1.019164D+01
              MO Center=  1.2D+00, -4.8D-01, -1.2D-08, r^2= 1.4D-01
   Bfn.  Coefficient  Atom+Function         Bfn.  Coefficient  Atom+Function  
  ----- ------------  ---------------      ----- ------------  ---------------
   185      0.958583   5 C  s               231      0.227624   6 C  s         
   142     -0.068252   4 C  s               348      0.060470  10 H  s         
   187      0.057294   5 C  s                50      0.054823   2 C  s         
   279     -0.045493   7 H  s                51      0.044300   2 C  s         
   139      0.042260   4 C  s               189     -0.037263   5 C  s         
 
 Vector    4  Occ=1.000000D+00  E=-1.019053D+01
              MO Center= -1.3D+00,  6.3D-01, -2.3D-08, r^2= 1.2D-01
   Bfn.  Coefficient  Atom+Function         Bfn.  Coefficient  Atom+Function  
  ----- ------------  ---------------      ----- ------------  ---------------
    47      0.962887   2 C  s                93     -0.205759   3 C  s         
   279      0.058664   7 H  s                49      0.056031   2 C  s         
   189      0.038888   5 C  s               188      0.034746   5 C  s         
   143      0.032386   4 C  s                 4     -0.030245   1 C  s         
    51     -0.030200   2 C  s                97     -0.030301   3 C  s         
 
 Vector    5  Occ=1.000000D+00  E=-1.019031D+01
              MO Center=  1.2D+00,  7.7D-01,  4.5D-08, r^2= 1.3D-01
   Bfn.  Coefficient  Atom+Function         Bfn.  Coefficient  Atom+Function  
  ----- ------------  ---------------      ----- ------------  ---------------
   231      0.958695   6 C  s               185     -0.224660   5 C  s         
   371      0.058168  11 H  s               233      0.055735   6 C  s         
    97      0.040058   3 C  s                96      0.036056   3 C  s         
    12     -0.031646   1 C  px              143      0.031389   4 C  s         
   189     -0.031454   5 C  s               188     -0.030446   5 C  s         
 
 Vector    6  Occ=1.000000D+00  E=-1.018444D+01
              MO Center=  8.3D-02, -1.3D+00,  3.9D-08, r^2= 3.5D-02
   Bfn.  Coefficient  Atom+Function         Bfn.  Coefficient  Atom+Function  
  ----- ------------  ---------------      ----- ------------  ---------------
   139      0.984208   4 C  s               141      0.057789   4 C  s         
    96     -0.045865   3 C  s               188     -0.045918   5 C  s         
   325      0.045944   9 H  s               143     -0.043455   4 C  s         
   185     -0.041516   5 C  s                 4      0.040415   1 C  s         
    93     -0.039498   3 C  s               151      0.035995   4 C  py        
 
 Vector    7  Occ=1.000000D+00  E=-8.724860D-01
              MO Center= -2.3D-03,  9.9D-02,  4.9D-09, r^2= 2.0D+00
   Bfn.  Coefficient  Atom+Function         Bfn.  Coefficient  Atom+Function  
  ----- ------------  ---------------      ----- ------------  ---------------
     2      0.213927   1 C  s               232      0.203306   6 C  s         
    48      0.202194   2 C  s               186      0.196139   5 C  s         
    94      0.194916   3 C  s               140      0.188304   4 C  s         
   234      0.090459   6 C  s                50      0.089905   2 C  s         
    96      0.087921   3 C  s               188      0.088337   5 C  s         
 
 Vector    8  Occ=1.000000D+00  E=-7.627711D-01
              MO Center= -8.2D-03,  1.0D-01,  1.9D-09, r^2= 2.8D+00
   Bfn.  Coefficient  Atom+Function         Bfn.  Coefficient  Atom+Function  
  ----- ------------  ---------------      ----- ------------  ---------------
    48      0.251985   2 C  s               232     -0.250137   6 C  s         
    94      0.243144   3 C  s               186     -0.244107   5 C  s         
    50      0.146931   2 C  s               234     -0.145553   6 C  s         
   279     -0.129519   7 H  s               371      0.129291  11 H  s         
   150     -0.115494   4 C  px               97      0.111122   3 C  s         
 
 Vector    9  Occ=1.000000D+00  E=-7.537591D-01
              MO Center=  9.6D-03, -1.5D-01, -2.7D-08, r^2= 2.6D+00
   Bfn.  Coefficient  Atom+Function         Bfn.  Coefficient  Atom+Function  
  ----- ------------  ---------------      ----- ------------  ---------------
   140     -0.301147   4 C  s                 2      0.278273   1 C  s         
    94     -0.149844   3 C  s               232      0.149342   6 C  s         
    48      0.146971   2 C  s               142     -0.147395   4 C  s         
   186     -0.147604   5 C  s                96     -0.105442   3 C  s         
   188     -0.104315   5 C  s                 4      0.102953   1 C  s         
 
 Vector   10  Occ=1.000000D+00  E=-6.187624D-01
              MO Center= -5.5D-03,  3.8D-02, -1.0D-08, r^2= 3.6D+00
   Bfn.  Coefficient  Atom+Function         Bfn.  Coefficient  Atom+Function  
  ----- ------------  ---------------      ----- ------------  ---------------
    94     -0.209342   3 C  s               186      0.208032   5 C  s         
    48      0.199136   2 C  s               232     -0.199558   6 C  s         
    50      0.183764   2 C  s               234     -0.182957   6 C  s         
    96     -0.148219   3 C  s               188      0.145753   5 C  s         
     6     -0.127202   1 C  px              144      0.117015   4 C  px        
 
 Vector   11  Occ=1.000000D+00  E=-6.035630D-01
              MO Center=  8.3D-03, -8.5D-02, -3.1D-08, r^2= 3.5D+00
   Bfn.  Coefficient  Atom+Function         Bfn.  Coefficient  Atom+Function  
  ----- ------------  ---------------      ----- ------------  ---------------
   142      0.258361   4 C  s                 2      0.239057   1 C  s         
   140      0.218585   4 C  s                 4      0.198646   1 C  s         
   186     -0.138793   5 C  s                94     -0.138067   3 C  s         
    50     -0.123593   2 C  s               234     -0.121871   6 C  s         
    96     -0.119108   3 C  s               188     -0.119421   5 C  s         
 
 Vector   12  Occ=1.000000D+00  E=-5.277640D-01
              MO Center=  1.3D-02, -1.5D-01, -1.1D-08, r^2= 4.1D+00
   Bfn.  Coefficient  Atom+Function         Bfn.  Coefficient  Atom+Function  
  ----- ------------  ---------------      ----- ------------  ---------------
   148      0.159343   4 C  py              145      0.138890   4 C  py        
   324     -0.126834   9 H  s                55      0.105053   2 C  px        
   240     -0.104974   6 C  py              323     -0.100397   9 H  s         
   237     -0.096296   6 C  py              193     -0.094595   5 C  px        
   278     -0.094297   7 H  s               370     -0.094653  11 H  s         
 
 Vector   13  Occ=1.000000D+00  E=-4.645567D-01
              MO Center= -7.0D-03,  1.0D-01,  4.2D-10, r^2= 2.7D+00
   Bfn.  Coefficient  Atom+Function         Bfn.  Coefficient  Atom+Function  
  ----- ------------  ---------------      ----- ------------  ---------------
     9      0.188914   1 C  px                6      0.175318   1 C  px        
   147      0.172444   4 C  px              144      0.159117   4 C  px        
   239     -0.137895   6 C  px              194     -0.135567   5 C  py        
    56     -0.131509   2 C  py              236     -0.122874   6 C  px        
   101     -0.121801   3 C  px              191     -0.122137   5 C  py        
 
 Vector   14  Occ=1.000000D+00  E=-4.631654D-01
              MO Center=  6.4D-03, -1.6D-01, -4.4D-08, r^2= 4.8D+00
   Bfn.  Coefficient  Atom+Function         Bfn.  Coefficient  Atom+Function  
  ----- ------------  ---------------      ----- ------------  ---------------
     2      0.176550   1 C  s               347      0.137190  10 H  s         
   301      0.136374   8 H  s               140     -0.129351   4 C  s         
   193      0.129338   5 C  px              196      0.121050   5 C  px        
   190      0.119934   5 C  px               96      0.118374   3 C  s         
   101     -0.117004   3 C  px              104     -0.116533   3 C  px        
 
 Vector   15  Occ=1.000000D+00  E=-4.400057D-01
              MO Center= -1.7D-02,  2.1D-01, -2.5D-08, r^2= 4.0D+00
   Bfn.  Coefficient  Atom+Function         Bfn.  Coefficient  Atom+Function  
  ----- ------------  ---------------      ----- ------------  ---------------
   240      0.143777   6 C  py              102      0.139494   3 C  py        
   237      0.132732   6 C  py              278     -0.131442   7 H  s         
   370      0.131383  11 H  s                99      0.130397   3 C  py        
    55      0.129496   2 C  px               56     -0.129035   2 C  py        
   194     -0.126537   5 C  py               53     -0.119852   2 C  py        
 
 Vector   16  Occ=1.000000D+00  E=-3.990840D-01
              MO Center=  5.1D-02, -7.8D-01, -9.3D-09, r^2= 3.3D+00
   Bfn.  Coefficient  Atom+Function         Bfn.  Coefficient  Atom+Function  
  ----- ------------  ---------------      ----- ------------  ---------------
   148      0.233558   4 C  py              145      0.209190   4 C  py        
   324     -0.198462   9 H  s               151      0.172779   4 C  py        
   323     -0.154003   9 H  s                10      0.138514   1 C  py        
    13      0.120888   1 C  py              240      0.115536   6 C  py        
    56      0.109295   2 C  py              194     -0.108454   5 C  py        
 
 Vector   17  Occ=1.000000D+00  E=-3.837117D-01
              MO Center= -4.6D-03,  1.2D-01, -5.9D-08, r^2= 2.7D+00
   Bfn.  Coefficient  Atom+Function         Bfn.  Coefficient  Atom+Function  
  ----- ------------  ---------------      ----- ------------  ---------------
    11      0.173069   1 C  pz               57      0.156356   2 C  pz        
   241      0.156970   6 C  pz              103      0.151708   3 C  pz        
   195      0.152372   5 C  pz              149      0.146146   4 C  pz        
     8      0.136566   1 C  pz               54      0.125690   2 C  pz        
   238      0.126200   6 C  pz              100      0.121335   3 C  pz        
 
 Vector   18  Occ=1.000000D+00  E=-3.660074D-01
              MO Center=  1.1D-02, -1.4D-01, -2.8D-08, r^2= 4.1D+00
   Bfn.  Coefficient  Atom+Function         Bfn.  Coefficient  Atom+Function  
  ----- ------------  ---------------      ----- ------------  ---------------
   147     -0.169366   4 C  px              101      0.165042   3 C  px        
   193      0.165126   5 C  px              144     -0.159886   4 C  px        
     9      0.149336   1 C  px               98      0.149352   3 C  px        
   190      0.149213   5 C  px                6      0.141581   1 C  px        
   196      0.135781   5 C  px              104      0.133224   3 C  px        
 
 Vector   19  Occ=1.000000D+00  E=-2.685025D-01
              MO Center=  5.0D-03, -1.7D-02,  7.9D-08, r^2= 3.0D+00
   Bfn.  Coefficient  Atom+Function         Bfn.  Coefficient  Atom+Function  
  ----- ------------  ---------------      ----- ------------  ---------------
    11      0.244250   1 C  pz              149     -0.238766   4 C  pz        
     8      0.192143   1 C  pz              146     -0.190831   4 C  pz        
    14      0.175533   1 C  pz              152     -0.171832   4 C  pz        
   195     -0.137540   5 C  pz               57      0.126633   2 C  pz        
   103     -0.114401   3 C  pz              192     -0.109934   5 C  pz        
 
 Vector   20  Occ=1.000000D+00  E=-2.679101D-01
              MO Center= -1.1D-02,  6.3D-02,  2.8D-07, r^2= 3.1D+00
   Bfn.  Coefficient  Atom+Function         Bfn.  Coefficient  Atom+Function  
  ----- ------------  ---------------      ----- ------------  ---------------
   103      0.213930   3 C  pz              241     -0.210375   6 C  pz        
   195     -0.199323   5 C  pz               57      0.197715   2 C  pz        
   100      0.170487   3 C  pz              238     -0.168404   6 C  pz        
    54      0.158295   2 C  pz              192     -0.158842   5 C  pz        
   106      0.154531   3 C  pz              244     -0.154976   6 C  pz        
 
 Vector   21  Occ=1.000000D+00  E=-2.483362D-01
              MO Center= -8.1D-02,  1.3D+00,  8.3D-08, r^2= 2.3D+00
   Bfn.  Coefficient  Atom+Function         Bfn.  Coefficient  Atom+Function  
  ----- ------------  ---------------      ----- ------------  ---------------
    10      0.385929   1 C  py               13      0.337726   1 C  py        
     5      0.335464   1 C  s                 7      0.299344   1 C  py        
     4      0.279440   1 C  s                 2      0.138438   1 C  s         
   243     -0.136309   6 C  py               59     -0.134030   2 C  py        
   102      0.112290   3 C  py              194      0.112318   5 C  py        
 
 Vector   22  Occ=0.000000D+00  E=-2.604766D-02
              MO Center= -6.7D-03,  6.5D-02, -1.0D-06, r^2= 4.3D+00
   Bfn.  Coefficient  Atom+Function         Bfn.  Coefficient  Atom+Function  
  ----- ------------  ---------------      ----- ------------  ---------------
   109     -0.321685   3 C  pz              201      0.318887   5 C  pz        
   247     -0.314947   6 C  pz               63      0.313239   2 C  pz        
    60      0.226439   2 C  pz              244     -0.226945   6 C  pz        
   106     -0.225288   3 C  pz              198      0.222690   5 C  pz        
    57      0.218103   2 C  pz              103     -0.217998   3 C  pz        
 
 Vector   23  Occ=0.000000D+00  E=-1.860673D-02
              MO Center=  2.3D-03, -4.7D-02, -4.2D-06, r^2= 4.3D+00
   Bfn.  Coefficient  Atom+Function         Bfn.  Coefficient  Atom+Function  
  ----- ------------  ---------------      ----- ------------  ---------------
   155      0.439256   4 C  pz               17      0.373962   1 C  pz        
   152      0.273681   4 C  pz               11      0.259177   1 C  pz        
   149      0.250585   4 C  pz               14      0.240802   1 C  pz        
   201     -0.228500   5 C  pz              109     -0.224392   3 C  pz        
     8      0.200877   1 C  pz               63     -0.200081   2 C  pz        
 
 Vector   24  Occ=0.000000D+00  E=-1.011612D-02
              MO Center=  7.2D-02, -9.5D-01, -1.8D-06, r^2= 2.0D+01
   Bfn.  Coefficient  Atom+Function         Bfn.  Coefficient  Atom+Function  
  ----- ------------  ---------------      ----- ------------  ---------------
     5      1.445712   1 C  s               279     -0.978254   7 H  s         
   371     -0.974405  11 H  s               326     -0.741931   9 H  s         
   349     -0.732564  10 H  s               303     -0.728107   8 H  s         
   302     -0.650920   8 H  s               348     -0.649299  10 H  s         
   325     -0.588094   9 H  s                51      0.565395   2 C  s         
 
 Vector   25  Occ=0.000000D+00  E= 4.379451D-03
              MO Center=  7.7D-03, -2.6D-01, -7.8D-06, r^2= 2.7D+01
   Bfn.  Coefficient  Atom+Function         Bfn.  Coefficient  Atom+Function  
  ----- ------------  ---------------      ----- ------------  ---------------
   235     -2.741264   6 C  s                51      2.720662   2 C  s         
    97      2.669220   3 C  s               189     -2.676035   5 C  s         
   303      1.999470   8 H  s               349     -1.994567  10 H  s         
    15      1.866756   1 C  px              153      1.807117   4 C  px        
   280      1.539945   7 H  s               372     -1.538831  11 H  s         
 
 Vector   26  Occ=0.000000D+00  E= 8.725690D-03
              MO Center=  2.6D-03, -7.4D-02,  6.0D-05, r^2= 2.7D+01
   Bfn.  Coefficient  Atom+Function         Bfn.  Coefficient  Atom+Function  
  ----- ------------  ---------------      ----- ------------  ---------------
   143      6.244278   4 C  s                51     -4.009228   2 C  s         
   235     -4.008719   6 C  s               326      2.932664   9 H  s         
     5      2.588543   1 C  s               280     -2.389888   7 H  s         
   372     -2.385817  11 H  s               154      1.946595   4 C  py        
   246      1.925905   6 C  py               62      1.838157   2 C  py        
 
 Vector   27  Occ=0.000000D+00  E= 2.670525D-02
              MO Center= -2.2D-02,  2.4D-01, -1.5D-05, r^2= 3.1D+01
   Bfn.  Coefficient  Atom+Function         Bfn.  Coefficient  Atom+Function  
  ----- ------------  ---------------      ----- ------------  ---------------
   280      3.930412   7 H  s               372     -3.932839  11 H  s         
    51      3.655793   2 C  s               235     -3.657277   6 C  s         
   303     -3.610600   8 H  s               349      3.592452  10 H  s         
    61      2.219989   2 C  px               97     -2.193013   3 C  s         
   189      2.187235   5 C  s               199     -2.036790   5 C  px        
 
 Vector   28  Occ=0.000000D+00  E= 3.221503D-02
              MO Center=  4.8D-02, -6.2D-01, -1.1D-04, r^2= 2.9D+01
   Bfn.  Coefficient  Atom+Function         Bfn.  Coefficient  Atom+Function  
  ----- ------------  ---------------      ----- ------------  ---------------
     5      6.396434   1 C  s               326     -4.997094   9 H  s         
   349      3.743423  10 H  s               303      3.708735   8 H  s         
    97     -2.175893   3 C  s               154     -2.174818   4 C  py        
   189     -2.182359   5 C  s               199     -1.656726   5 C  px        
   245      1.644375   6 C  px               61     -1.569526   2 C  px        
 
 Vector   29  Occ=0.000000D+00  E= 4.329356D-02
              MO Center=  1.7D-02, -2.2D-01,  8.5D-06, r^2= 1.3D+01
   Bfn.  Coefficient  Atom+Function         Bfn.  Coefficient  Atom+Function  
  ----- ------------  ---------------      ----- ------------  ---------------
   155      0.598952   4 C  pz               63      0.575291   2 C  pz        
   247      0.576875   6 C  pz               17     -0.260278   1 C  pz        
    60     -0.155407   2 C  pz              244     -0.154774   6 C  pz        
   289     -0.123580   7 H  pz              381     -0.123542  11 H  pz        
   259      0.119633   6 C  d -1             77      0.109771   2 C  d  1      
 
 Vector   30  Occ=0.000000D+00  E= 5.495597D-02
              MO Center=  1.5D-02, -1.5D-01, -4.1D-05, r^2= 1.5D+01
   Bfn.  Coefficient  Atom+Function         Bfn.  Coefficient  Atom+Function  
  ----- ------------  ---------------      ----- ------------  ---------------
     5     10.705858   1 C  s               143      5.281845   4 C  s         
    51     -4.491240   2 C  s               235     -4.482195   6 C  s         
   349     -2.816901  10 H  s               303     -2.782214   8 H  s         
   326      2.058542   9 H  s               199      2.018027   5 C  px        
   189     -1.979650   5 C  s                97     -1.921077   3 C  s         
 
 Vector   31  Occ=0.000000D+00  E= 6.334905D-02
              MO Center= -4.2D-02,  6.5D-01, -1.1D-04, r^2= 2.8D+01
   Bfn.  Coefficient  Atom+Function         Bfn.  Coefficient  Atom+Function  
  ----- ------------  ---------------      ----- ------------  ---------------
     5     24.382023   1 C  s                51     -9.876879   2 C  s         
   235     -9.837646   6 C  s               143      7.628140   4 C  s         
    97     -6.509287   3 C  s               189     -6.512817   5 C  s         
   326      5.866532   9 H  s               154      4.770758   4 C  py        
   303     -4.672757   8 H  s               349     -4.692370  10 H  s         
 
 Vector   32  Occ=0.000000D+00  E= 6.574574D-02
              MO Center= -5.2D-04, -2.3D-02,  5.3D-04, r^2= 1.8D+01
   Bfn.  Coefficient  Atom+Function         Bfn.  Coefficient  Atom+Function  
  ----- ------------  ---------------      ----- ------------  ---------------
   109      0.972706   3 C  pz              201     -0.977306   5 C  pz        
    63      0.773288   2 C  pz              247     -0.770353   6 C  pz        
   169     -0.677050   4 C  d  1             31     -0.583304   1 C  d  1      
   106      0.492889   3 C  pz              198     -0.491139   5 C  pz        
   244     -0.489956   6 C  pz               60      0.487420   2 C  pz        
 
 Vector   33  Occ=0.000000D+00  E= 6.825498D-02
              MO Center= -1.2D-02,  1.9D-01, -2.8D-04, r^2= 1.8D+01
   Bfn.  Coefficient  Atom+Function         Bfn.  Coefficient  Atom+Function  
  ----- ------------  ---------------      ----- ------------  ---------------
    63      1.023216   2 C  pz              247      1.026587   6 C  pz        
   109     -0.810005   3 C  pz              201     -0.809433   5 C  pz        
   155     -0.754033   4 C  pz               14      0.629136   1 C  pz        
   152     -0.618249   4 C  pz               17      0.456739   1 C  pz        
   213     -0.455291   5 C  d -1            261     -0.412704   6 C  d  1      
 
 Vector   34  Occ=0.000000D+00  E= 7.645438D-02
              MO Center=  6.6D-02, -1.6D-01, -1.2D-04, r^2= 3.4D+01
   Bfn.  Coefficient  Atom+Function         Bfn.  Coefficient  Atom+Function  
  ----- ------------  ---------------      ----- ------------  ---------------
    51     13.943314   2 C  s               235    -13.786974   6 C  s         
    97     12.415381   3 C  s               189    -12.403030   5 C  s         
    15      7.676727   1 C  px              153      7.711167   4 C  px        
   107      4.777794   3 C  px              349     -4.710216  10 H  s         
   303      4.670523   8 H  s               199      4.449732   5 C  px        
 
 Vector   35  Occ=0.000000D+00  E= 7.791311D-02
              MO Center=  1.8D-01, -3.3D+00,  1.3D-04, r^2= 2.1D+01
   Bfn.  Coefficient  Atom+Function         Bfn.  Coefficient  Atom+Function  
  ----- ------------  ---------------      ----- ------------  ---------------
   143     18.276243   4 C  s               235    -13.600272   6 C  s         
    51    -13.288956   2 C  s               326      7.029196   9 H  s         
    62      5.707386   2 C  py              246      5.631342   6 C  py        
   200      5.395676   5 C  py              154      5.279537   4 C  py        
   108      5.043310   3 C  py              371      4.201501  11 H  s         
 
 Vector   36  Occ=0.000000D+00  E= 8.155080D-02
              MO Center= -1.2D-01,  1.4D+00,  7.6D-05, r^2= 2.8D+01
   Bfn.  Coefficient  Atom+Function         Bfn.  Coefficient  Atom+Function  
  ----- ------------  ---------------      ----- ------------  ---------------
   143     20.699659   4 C  s                51     -9.035656   2 C  s         
   235     -8.839161   6 C  s               246      5.238258   6 C  py        
    62      5.183335   2 C  py              325     -4.964939   9 H  s         
   280     -4.602969   7 H  s               372     -4.524526  11 H  s         
   326      4.496339   9 H  s               200      4.428683   5 C  py        
 
 Vector   37  Occ=0.000000D+00  E= 8.316951D-02
              MO Center=  5.0D-02, -7.3D-01, -1.1D-05, r^2= 2.2D+01
   Bfn.  Coefficient  Atom+Function         Bfn.  Coefficient  Atom+Function  
  ----- ------------  ---------------      ----- ------------  ---------------
   189     -4.957268   5 C  s                97      4.931482   3 C  s         
   235      3.183420   6 C  s                51     -3.077229   2 C  s         
   303      2.804992   8 H  s               349     -2.805634  10 H  s         
   108      2.771668   3 C  py              200     -2.707403   5 C  py        
   153      2.607236   4 C  px               96      2.076907   3 C  s         
 
 Vector   38  Occ=0.000000D+00  E= 9.540369D-02
              MO Center= -6.7D-02,  8.8D-01,  1.1D-05, r^2= 3.1D+01
   Bfn.  Coefficient  Atom+Function         Bfn.  Coefficient  Atom+Function  
  ----- ------------  ---------------      ----- ------------  ---------------
    51     17.650930   2 C  s               235    -17.704827   6 C  s         
   280      7.216715   7 H  s               372     -7.216539  11 H  s         
    97     -6.923940   3 C  s               189      6.888626   5 C  s         
   108     -6.464415   3 C  py              303     -6.224880   8 H  s         
   349      6.177536  10 H  s               200      5.914542   5 C  py        
 
 Vector   39  Occ=0.000000D+00  E= 1.017992D-01
              MO Center= -1.3D-02,  1.1D-01, -3.3D-04, r^2= 1.9D+01
   Bfn.  Coefficient  Atom+Function         Bfn.  Coefficient  Atom+Function  
  ----- ------------  ---------------      ----- ------------  ---------------
    51     13.717578   2 C  s               235    -13.761327   6 C  s         
    97     10.874624   3 C  s               189    -10.889098   5 C  s         
    15     10.001840   1 C  px              153      9.717962   4 C  px        
   246     -6.084822   6 C  py              108     -6.006219   3 C  py        
   200      6.007580   5 C  py               62      5.917722   2 C  py        
 
 Vector   40  Occ=0.000000D+00  E= 1.064729D-01
              MO Center= -1.5D-03,  1.3D-01, -5.7D-04, r^2= 2.1D+01
   Bfn.  Coefficient  Atom+Function         Bfn.  Coefficient  Atom+Function  
  ----- ------------  ---------------      ----- ------------  ---------------
   143     18.281468   4 C  s               235     -9.967820   6 C  s         
    51     -9.912046   2 C  s                 5     -9.463222   1 C  s         
   107     -8.753376   3 C  px              199      7.982696   5 C  px        
   245     -7.048174   6 C  px              200      6.716288   5 C  py        
    61      6.477522   2 C  px              108      5.689596   3 C  py        
 
 Vector   41  Occ=0.000000D+00  E= 1.082006D-01
              MO Center= -1.0D-02,  1.6D-01, -9.5D-05, r^2= 2.2D+01
   Bfn.  Coefficient  Atom+Function         Bfn.  Coefficient  Atom+Function  
  ----- ------------  ---------------      ----- ------------  ---------------
   247     -3.404764   6 C  pz               63      3.377364   2 C  pz        
   109     -3.371316   3 C  pz              201      3.356303   5 C  pz        
   244     -0.698537   6 C  pz               60      0.694277   2 C  pz        
   106     -0.639320   3 C  pz              198      0.635058   5 C  pz        
    77     -0.378896   2 C  d  1            215      0.358590   5 C  d  1      
 
 Vector   42  Occ=0.000000D+00  E= 1.089661D-01
              MO Center=  3.2D-02, -4.7D-01,  2.2D-03, r^2= 2.1D+01
   Bfn.  Coefficient  Atom+Function         Bfn.  Coefficient  Atom+Function  
  ----- ------------  ---------------      ----- ------------  ---------------
   155      5.322594   4 C  pz              201     -3.464092   5 C  pz        
   109     -3.426009   3 C  pz               17      2.509136   1 C  pz        
   152      0.982963   4 C  pz              198     -0.606973   5 C  pz        
   106     -0.600528   3 C  pz              167      0.569588   4 C  d -1      
    14      0.504969   1 C  pz               63     -0.491408   2 C  pz        
 
 Vector   43  Occ=0.000000D+00  E= 1.094954D-01
              MO Center=  4.3D-02, -4.5D-01, -1.1D-03, r^2= 2.7D+01
   Bfn.  Coefficient  Atom+Function         Bfn.  Coefficient  Atom+Function  
  ----- ------------  ---------------      ----- ------------  ---------------
   326      7.670245   9 H  s               154      7.056002   4 C  py        
   349     -6.510294  10 H  s               303     -6.446118   8 H  s         
   143     -5.596783   4 C  s               108     -4.441395   3 C  py        
   200     -4.166692   5 C  py              246     -4.175017   6 C  py        
    62     -4.117312   2 C  py                4      3.926755   1 C  s         
 
 Vector   44  Occ=0.000000D+00  E= 1.177974D-01
              MO Center= -4.4D-02,  6.5D-01, -4.2D-04, r^2= 1.4D+01
   Bfn.  Coefficient  Atom+Function         Bfn.  Coefficient  Atom+Function  
  ----- ------------  ---------------      ----- ------------  ---------------
    17      6.877510   1 C  pz               63     -6.022075   2 C  pz        
   247     -6.019484   6 C  pz              109      5.050458   3 C  pz        
   201      5.049255   5 C  pz              155     -4.820083   4 C  pz        
    14      1.235316   1 C  pz               60     -1.020373   2 C  pz        
   244     -1.019516   6 C  pz              106      0.892377   3 C  pz        
 
 Vector   45  Occ=0.000000D+00  E= 1.264043D-01
              MO Center= -2.2D-02,  2.9D-01, -2.3D-05, r^2= 2.5D+01
   Bfn.  Coefficient  Atom+Function         Bfn.  Coefficient  Atom+Function  
  ----- ------------  ---------------      ----- ------------  ---------------
    51      7.591664   2 C  s               235     -7.587539   6 C  s         
   107      7.204080   3 C  px              199      7.122225   5 C  px        
   245     -7.037955   6 C  px               61     -6.920680   2 C  px        
    15      6.442103   1 C  px               97     -6.194325   3 C  s         
   189      6.189638   5 C  s               153     -5.814547   4 C  px        
 
 Vector   46  Occ=0.000000D+00  E= 1.274474D-01
              MO Center= -6.9D-03,  1.9D-01,  1.4D-04, r^2= 2.6D+01
   Bfn.  Coefficient  Atom+Function         Bfn.  Coefficient  Atom+Function  
  ----- ------------  ---------------      ----- ------------  ---------------
   154     -8.028177   4 C  py               16      7.423567   1 C  py        
   108      6.876134   3 C  py               62     -6.554203   2 C  py        
   200      6.579001   5 C  py              246     -6.398516   6 C  py        
   326     -4.050257   9 H  s                 5      3.560645   1 C  s         
   349      3.182341  10 H  s               303      3.147093   8 H  s         
 
 Vector   47  Occ=0.000000D+00  E= 1.609461D-01
              MO Center= -5.7D-03,  1.4D-01,  9.1D-05, r^2= 1.7D+01
   Bfn.  Coefficient  Atom+Function         Bfn.  Coefficient  Atom+Function  
  ----- ------------  ---------------      ----- ------------  ---------------
    17      8.196402   1 C  pz               63     -7.996168   2 C  pz        
   247     -8.017656   6 C  pz              155     -7.857980   4 C  pz        
   109      7.760777   3 C  pz              201      7.784617   5 C  pz        
    60     -1.190127   2 C  pz              106      1.189976   3 C  pz        
   198      1.195195   5 C  pz              244     -1.195385   6 C  pz        
 
 Vector   48  Occ=0.000000D+00  E= 1.660220D-01
              MO Center= -8.9D-02,  1.4D+00,  3.2D-04, r^2= 2.2D+01
   Bfn.  Coefficient  Atom+Function         Bfn.  Coefficient  Atom+Function  
  ----- ------------  ---------------      ----- ------------  ---------------
     5     59.205385   1 C  s                51    -26.080572   2 C  s         
   143     25.973218   4 C  s               235    -25.889793   6 C  s         
    97    -14.390356   3 C  s               189    -14.434058   5 C  s         
   154      7.423357   4 C  py              245      6.820566   6 C  px        
    61     -6.397015   2 C  px              326      6.155529   9 H  s         
 
 Vector   49  Occ=0.000000D+00  E= 1.754215D-01
              MO Center=  2.6D-02, -3.9D-01, -1.7D-04, r^2= 1.1D+01
   Bfn.  Coefficient  Atom+Function         Bfn.  Coefficient  Atom+Function  
  ----- ------------  ---------------      ----- ------------  ---------------
   335      1.104697   9 H  pz              312      1.078466   8 H  pz        
   358      1.080314  10 H  pz              289      0.971994   7 H  pz        
   381      0.973600  11 H  pz               17      0.952951   1 C  pz        
    63     -0.878296   2 C  pz              247     -0.878905   6 C  pz        
   106     -0.844770   3 C  pz              198     -0.843307   5 C  pz        
 
 Vector   50  Occ=0.000000D+00  E= 1.864148D-01
              MO Center=  3.0D-02, -5.5D-01,  9.6D-05, r^2= 1.5D+01
   Bfn.  Coefficient  Atom+Function         Bfn.  Coefficient  Atom+Function  
  ----- ------------  ---------------      ----- ------------  ---------------
     5     15.535391   1 C  s                97     -7.303442   3 C  s         
   189     -7.250859   5 C  s               235     -4.569551   6 C  s         
    51     -4.427647   2 C  s               325      4.420049   9 H  s         
    62     -4.064057   2 C  py              154      3.990021   4 C  py        
   246     -3.798939   6 C  py              348      3.294911  10 H  s         
 
 Vector   51  Occ=0.000000D+00  E= 1.980374D-01
              MO Center=  3.1D-02,  4.7D-01,  3.5D-04, r^2= 2.3D+01
   Bfn.  Coefficient  Atom+Function         Bfn.  Coefficient  Atom+Function  
  ----- ------------  ---------------      ----- ------------  ---------------
   235    -45.958928   6 C  s                51     43.166715   2 C  s         
    97     25.548670   3 C  s               189    -24.819400   5 C  s         
    15     18.501945   1 C  px              153     17.027785   4 C  px        
   302    -14.147450   8 H  s               348     13.855783  10 H  s         
   200      9.780620   5 C  py              371      8.470391  11 H  s         
 
 Vector   52  Occ=0.000000D+00  E= 1.984370D-01
              MO Center= -9.7D-03, -7.3D-01, -5.1D-04, r^2= 2.3D+01
   Bfn.  Coefficient  Atom+Function         Bfn.  Coefficient  Atom+Function  
  ----- ------------  ---------------      ----- ------------  ---------------
   143     61.277897   4 C  s                51    -36.349587   2 C  s         
   235    -32.668902   6 C  s               325    -16.854323   9 H  s         
    62     14.641336   2 C  py              246     14.487461   6 C  py        
   200     13.291969   5 C  py              108     12.984040   3 C  py        
     5    -11.576589   1 C  s               279     11.508244   7 H  s         
 
 Vector   53  Occ=0.000000D+00  E= 2.154169D-01
              MO Center=  9.0D-02, -1.4D+00, -4.0D-05, r^2= 1.5D+01
   Bfn.  Coefficient  Atom+Function         Bfn.  Coefficient  Atom+Function  
  ----- ------------  ---------------      ----- ------------  ---------------
   189    -13.936892   5 C  s                97     13.745370   3 C  s         
   188     -6.654447   5 C  s                96      6.419224   3 C  s         
   153      6.335433   4 C  px              371      5.311398  11 H  s         
   279     -4.948455   7 H  s               303      4.792014   8 H  s         
   349     -4.652269  10 H  s                62      4.519782   2 C  py        
 
 Vector   54  Occ=0.000000D+00  E= 2.182544D-01
              MO Center= -1.9D-02, -2.9D-01, -1.3D-04, r^2= 1.5D+01
   Bfn.  Coefficient  Atom+Function         Bfn.  Coefficient  Atom+Function  
  ----- ------------  ---------------      ----- ------------  ---------------
   143     25.629699   4 C  s               235    -19.444363   6 C  s         
     5     15.912731   1 C  s                51    -15.925358   2 C  s         
    16     -6.377634   1 C  py              325     -6.008749   9 H  s         
    62      5.023630   2 C  py              246      4.476424   6 C  py        
   200      3.979039   5 C  py              279      3.912270   7 H  s         
 
 Vector   55  Occ=0.000000D+00  E= 2.191098D-01
              MO Center=  2.5D-02, -8.3D-02,  1.0D-03, r^2= 1.5D+01
   Bfn.  Coefficient  Atom+Function         Bfn.  Coefficient  Atom+Function  
  ----- ------------  ---------------      ----- ------------  ---------------
    51     21.189070   2 C  s               235    -18.257933   6 C  s         
   108     -8.671072   3 C  py              200      7.813726   5 C  py        
    15      7.462210   1 C  px              302     -6.923138   8 H  s         
   348      6.891338  10 H  s               153      6.269737   4 C  px        
   246     -4.392123   6 C  py              199     -3.585548   5 C  px        
 
 Vector   56  Occ=0.000000D+00  E= 2.301225D-01
              MO Center= -6.0D-02,  2.9D-01,  1.9D-03, r^2= 1.8D+01
   Bfn.  Coefficient  Atom+Function         Bfn.  Coefficient  Atom+Function  
  ----- ------------  ---------------      ----- ------------  ---------------
   199      4.834783   5 C  px              107      4.726378   3 C  px        
   153     -3.565628   4 C  px               50     -3.291296   2 C  s         
   234      3.247071   6 C  s               303      3.235678   8 H  s         
   349     -3.088105  10 H  s                15     -2.629587   1 C  px        
   108      2.461331   3 C  py               59      1.972442   2 C  py        
 
 Vector   57  Occ=0.000000D+00  E= 2.311950D-01
              MO Center=  3.7D-04,  2.2D-03, -3.8D-03, r^2= 1.6D+01
   Bfn.  Coefficient  Atom+Function         Bfn.  Coefficient  Atom+Function  
  ----- ------------  ---------------      ----- ------------  ---------------
   106      2.143901   3 C  pz              198     -2.139995   5 C  pz        
    60      2.048458   2 C  pz              244     -2.047304   6 C  pz        
   312     -1.818101   8 H  pz              358      1.817979  10 H  pz        
   289     -1.721113   7 H  pz              381      1.720281  11 H  pz        
   169     -1.379286   4 C  d  1             31     -1.247609   1 C  d  1      
 
 Vector   58  Occ=0.000000D+00  E= 2.354168D-01
              MO Center=  3.2D-02,  2.1D-01,  5.1D-04, r^2= 1.6D+01
   Bfn.  Coefficient  Atom+Function         Bfn.  Coefficient  Atom+Function  
  ----- ------------  ---------------      ----- ------------  ---------------
   143     14.935547   4 C  s               235    -11.208366   6 C  s         
    51     -9.727912   2 C  s               107     -8.163154   3 C  px        
   199      7.769065   5 C  px               61      5.439777   2 C  px        
   245     -5.310110   6 C  px              303     -4.464413   8 H  s         
   349     -4.370557  10 H  s                 5      4.061073   1 C  s         
 
 Vector   59  Occ=0.000000D+00  E= 2.365063D-01
              MO Center= -1.5D-02,  7.2D-02,  9.6D-04, r^2= 1.7D+01
   Bfn.  Coefficient  Atom+Function         Bfn.  Coefficient  Atom+Function  
  ----- ------------  ---------------      ----- ------------  ---------------
    97    -33.189929   3 C  s               189     33.133648   5 C  s         
    51     31.638978   2 C  s               235    -31.389640   6 C  s         
   188     14.426497   5 C  s                96    -14.335274   3 C  s         
   371    -10.860998  11 H  s               279     10.724843   7 H  s         
   302    -10.638573   8 H  s               348     10.655874  10 H  s         
 
 Vector   60  Occ=0.000000D+00  E= 2.434363D-01
              MO Center=  2.3D-03, -4.4D-02, -4.6D-04, r^2= 1.5D+01
   Bfn.  Coefficient  Atom+Function         Bfn.  Coefficient  Atom+Function  
  ----- ------------  ---------------      ----- ------------  ---------------
   152      3.414982   4 C  pz               14     -3.023844   1 C  pz        
   289      2.170270   7 H  pz              381      2.171166  11 H  pz        
   335     -2.124893   9 H  pz              261      2.009980   6 C  d  1      
    77     -1.978563   2 C  d  1             63     -1.598482   2 C  pz        
   247     -1.599516   6 C  pz              155      1.372257   4 C  pz        
 
 Vector   61  Occ=0.000000D+00  E= 2.594934D-01
              MO Center=  5.3D-02, -6.0D-01,  6.3D-05, r^2= 1.7D+01
   Bfn.  Coefficient  Atom+Function         Bfn.  Coefficient  Atom+Function  
  ----- ------------  ---------------      ----- ------------  ---------------
     5      8.729880   1 C  s               108     -6.636014   3 C  py        
   200     -6.065921   5 C  py              349     -5.218329  10 H  s         
   199      5.125418   5 C  px              303     -5.148977   8 H  s         
   197     -4.829831   5 C  py              143     -4.789562   4 C  s         
   105     -4.740629   3 C  py              154      4.373034   4 C  py        
 
 Vector   62  Occ=0.000000D+00  E= 2.620200D-01
              MO Center=  7.2D-02, -1.1D+00, -5.2D-05, r^2= 1.7D+01
   Bfn.  Coefficient  Atom+Function         Bfn.  Coefficient  Atom+Function  
  ----- ------------  ---------------      ----- ------------  ---------------
     5     18.959012   1 C  s               154     15.366548   4 C  py        
   143     15.157911   4 C  s                51    -14.885766   2 C  s         
   235    -14.238837   6 C  s               326      9.182803   9 H  s         
     4      6.020214   1 C  s               189     -4.821114   5 C  s         
   108     -4.674900   3 C  py               97     -4.495234   3 C  s         
 
 Vector   63  Occ=0.000000D+00  E= 2.676668D-01
              MO Center= -3.0D-02,  4.3D-01,  6.1D-05, r^2= 2.0D+01
   Bfn.  Coefficient  Atom+Function         Bfn.  Coefficient  Atom+Function  
  ----- ------------  ---------------      ----- ------------  ---------------
   235    -20.434654   6 C  s                51     19.958513   2 C  s         
    97    -11.999066   3 C  s               189     11.830123   5 C  s         
    61     10.943346   2 C  px              245     10.324409   6 C  px        
    96     -8.819663   3 C  s               371     -8.817606  11 H  s         
   188      8.695242   5 C  s               279      8.715037   7 H  s         
 
 Vector   64  Occ=0.000000D+00  E= 2.747926D-01
              MO Center=  2.5D-03,  2.4D-02,  6.7D-05, r^2= 1.4D+01
   Bfn.  Coefficient  Atom+Function         Bfn.  Coefficient  Atom+Function  
  ----- ------------  ---------------      ----- ------------  ---------------
   143      8.946503   4 C  s                 5      8.696439   1 C  s         
   154      5.756868   4 C  py              279     -5.689309   7 H  s         
   371     -5.620510  11 H  s               348     -4.695701  10 H  s         
   302     -4.603923   8 H  s               325     -4.359658   9 H  s         
    16     -4.030772   1 C  py              246      3.228574   6 C  py        
 
 Vector   65  Occ=0.000000D+00  E= 2.829760D-01
              MO Center= -1.7D-02,  1.8D-01, -1.8D-05, r^2= 1.6D+01
   Bfn.  Coefficient  Atom+Function         Bfn.  Coefficient  Atom+Function  
  ----- ------------  ---------------      ----- ------------  ---------------
    12      9.526869   1 C  px               97      8.891241   3 C  s         
   189     -8.908342   5 C  s               302      8.143524   8 H  s         
    51     -8.058896   2 C  s               348     -8.052450  10 H  s         
   235      7.978958   6 C  s               199      7.623344   5 C  px        
   107      7.172331   3 C  px              150      6.193282   4 C  px        
 
 Vector   66  Occ=0.000000D+00  E= 2.954310D-01
              MO Center= -8.0D-03,  5.0D-02, -1.8D-05, r^2= 1.6D+01
   Bfn.  Coefficient  Atom+Function         Bfn.  Coefficient  Atom+Function  
  ----- ------------  ---------------      ----- ------------  ---------------
    63      3.204463   2 C  pz              109     -3.199530   3 C  pz        
   247     -3.197751   6 C  pz              201      3.177905   5 C  pz        
   289     -2.279219   7 H  pz              244     -2.264277   6 C  pz        
   312      2.269194   8 H  pz              381      2.275256  11 H  pz        
    60      2.248961   2 C  pz              358     -2.258105  10 H  pz        
 
 Vector   67  Occ=0.000000D+00  E= 2.962824D-01
              MO Center= -5.1D-02,  9.6D-01,  4.1D-04, r^2= 1.4D+01
   Bfn.  Coefficient  Atom+Function         Bfn.  Coefficient  Atom+Function  
  ----- ------------  ---------------      ----- ------------  ---------------
     4     10.430996   1 C  s                59     -5.725567   2 C  py        
   243     -5.650183   6 C  py                5      5.528980   1 C  s         
   105     -5.536682   3 C  py              197     -5.128219   5 C  py        
    16      4.276608   1 C  py              371     -4.201940  11 H  s         
   279     -4.170813   7 H  s                13      3.916233   1 C  py        
 
 Vector   68  Occ=0.000000D+00  E= 3.080568D-01
              MO Center=  3.8D-02, -2.7D-01, -4.5D-04, r^2= 1.5D+01
   Bfn.  Coefficient  Atom+Function         Bfn.  Coefficient  Atom+Function  
  ----- ------------  ---------------      ----- ------------  ---------------
   155      5.180571   4 C  pz               14      4.365617   1 C  pz        
   201     -3.753306   5 C  pz              109     -3.732285   3 C  pz        
   335     -2.709273   9 H  pz               60     -2.049170   2 C  pz        
   244     -2.050526   6 C  pz              152      1.850724   4 C  pz        
    17      1.837796   1 C  pz               29     -1.719564   1 C  d -1      
 
 Vector   69  Occ=0.000000D+00  E= 3.150402D-01
              MO Center= -3.1D-02, -7.6D-02,  1.6D-05, r^2= 9.1D+00
   Bfn.  Coefficient  Atom+Function         Bfn.  Coefficient  Atom+Function  
  ----- ------------  ---------------      ----- ------------  ---------------
   261      1.231290   6 C  d  1             77      1.156571   2 C  d  1      
   169     -1.081697   4 C  d  1             75     -1.023999   2 C  d -1      
   259      0.875857   6 C  d -1            289     -0.730140   7 H  pz        
   381      0.713920  11 H  pz               31      0.633430   1 C  d  1      
    60     -0.363947   2 C  pz              244      0.308731   6 C  pz        
 
 Vector   70  Occ=0.000000D+00  E= 3.284615D-01
              MO Center=  3.2D-02, -6.2D-01,  7.0D-05, r^2= 1.5D+01
   Bfn.  Coefficient  Atom+Function         Bfn.  Coefficient  Atom+Function  
  ----- ------------  ---------------      ----- ------------  ---------------
   142     12.143615   4 C  s                96      8.731949   3 C  s         
   188      8.695100   5 C  s               151     -6.842697   4 C  py        
   325     -5.844479   9 H  s                 4     -5.234844   1 C  s         
   334     -5.005883   9 H  py                5      4.901837   1 C  s         
   302     -4.490391   8 H  s               348     -4.284821  10 H  s         
 
 Vector   71  Occ=0.000000D+00  E= 3.347416D-01
              MO Center=  2.2D-04,  2.6D-02,  2.0D-04, r^2= 7.7D+00
   Bfn.  Coefficient  Atom+Function         Bfn.  Coefficient  Atom+Function  
  ----- ------------  ---------------      ----- ------------  ---------------
   381      2.043102  11 H  pz              289      2.022727   7 H  pz        
   335      1.841888   9 H  pz               14     -1.757636   1 C  pz        
   155     -1.721976   4 C  pz               63     -1.567519   2 C  pz        
   247     -1.567365   6 C  pz               77     -1.494474   2 C  d  1      
   261      1.419468   6 C  d  1            106     -1.285796   3 C  pz        
 
 Vector   72  Occ=0.000000D+00  E= 3.433172D-01
              MO Center=  1.9D-02, -3.9D-01, -4.4D-03, r^2= 1.2D+01
   Bfn.  Coefficient  Atom+Function         Bfn.  Coefficient  Atom+Function  
  ----- ------------  ---------------      ----- ------------  ---------------
   169      3.296020   4 C  d  1             31      2.703293   1 C  d  1      
   312     -2.479521   8 H  pz              358      2.472977  10 H  pz        
   123      2.193405   3 C  d  1            215      2.129555   5 C  d  1      
   106     -1.799550   3 C  pz              198      1.794872   5 C  pz        
   289     -1.444722   7 H  pz              381      1.421658  11 H  pz        
 
 Vector   73  Occ=0.000000D+00  E= 3.449229D-01
              MO Center= -4.8D-02,  5.6D-01, -2.1D-03, r^2= 1.2D+01
   Bfn.  Coefficient  Atom+Function         Bfn.  Coefficient  Atom+Function  
  ----- ------------  ---------------      ----- ------------  ---------------
   143     23.692849   4 C  s               325    -13.016787   9 H  s         
   235    -12.060019   6 C  s               371     11.982004  11 H  s         
   279     11.849405   7 H  s                51    -11.442566   2 C  s         
     5     -7.711995   1 C  s               197     -6.901661   5 C  py        
   105     -6.814325   3 C  py              243     -5.966452   6 C  py        
 
 Vector   74  Occ=0.000000D+00  E= 3.478307D-01
              MO Center=  2.4D-02, -1.5D-01,  4.1D-03, r^2= 1.2D+01
   Bfn.  Coefficient  Atom+Function         Bfn.  Coefficient  Atom+Function  
  ----- ------------  ---------------      ----- ------------  ---------------
    51     21.463472   2 C  s               235    -20.884556   6 C  s         
   348     12.035632  10 H  s               302    -11.930776   8 H  s         
   189    -11.008935   5 C  s                97     10.897175   3 C  s         
   279     -9.814801   7 H  s               371      9.705269  11 H  s         
    12     -8.087530   1 C  px              150     -7.048932   4 C  px        
 
 Vector   75  Occ=0.000000D+00  E= 3.481543D-01
              MO Center=  3.1D-02, -5.3D-01,  3.1D-03, r^2= 1.3D+01
   Bfn.  Coefficient  Atom+Function         Bfn.  Coefficient  Atom+Function  
  ----- ------------  ---------------      ----- ------------  ---------------
   155     -3.941791   4 C  pz               17      3.750911   1 C  pz        
   201      3.544706   5 C  pz              109      3.521483   3 C  pz        
   247     -3.431575   6 C  pz               63     -3.411341   2 C  pz        
   152     -3.004337   4 C  pz              213     -2.318549   5 C  d -1      
   289      2.268795   7 H  pz              381      2.254286  11 H  pz        
 
 Vector   76  Occ=0.000000D+00  E= 3.527372D-01
              MO Center=  4.9D-02, -5.2D-01, -2.0D-04, r^2= 1.4D+01
   Bfn.  Coefficient  Atom+Function         Bfn.  Coefficient  Atom+Function  
  ----- ------------  ---------------      ----- ------------  ---------------
    17      6.407496   1 C  pz               63     -5.875359   2 C  pz        
   247     -5.871196   6 C  pz              109      5.141813   3 C  pz        
   201      5.140466   5 C  pz              155     -4.869323   4 C  pz        
   335      3.947589   9 H  pz               14      3.806712   1 C  pz        
   167      3.066205   4 C  d -1             60     -2.705773   2 C  pz        
 
 Vector   77  Occ=0.000000D+00  E= 3.546342D-01
              MO Center= -1.2D-02,  3.2D-01, -6.8D-04, r^2= 1.5D+01
   Bfn.  Coefficient  Atom+Function         Bfn.  Coefficient  Atom+Function  
  ----- ------------  ---------------      ----- ------------  ---------------
     5     31.350989   1 C  s               143     15.923723   4 C  s         
   235    -15.964530   6 C  s                51    -15.550379   2 C  s         
   151    -11.082121   4 C  py              196     -7.672383   5 C  px        
    50      7.400450   2 C  s               234      7.364506   6 C  s         
    13      7.277588   1 C  py              104      7.073959   3 C  px        
 
 Vector   78  Occ=0.000000D+00  E= 3.598961D-01
              MO Center= -3.5D-02,  7.5D-01,  2.4D-04, r^2= 1.3D+01
   Bfn.  Coefficient  Atom+Function         Bfn.  Coefficient  Atom+Function  
  ----- ------------  ---------------      ----- ------------  ---------------
   381     -3.416575  11 H  pz              289      3.393686   7 H  pz        
   244     -3.197096   6 C  pz               60      3.113956   2 C  pz        
    77     -3.059261   2 C  d  1            121     -3.074075   3 C  d -1      
   259      3.039117   6 C  d -1            213      2.802256   5 C  d -1      
   312     -2.780776   8 H  pz              198      2.750705   5 C  pz        
 
 Vector   79  Occ=0.000000D+00  E= 3.685346D-01
              MO Center=  4.0D-03, -5.8D-01, -1.5D-04, r^2= 1.3D+01
   Bfn.  Coefficient  Atom+Function         Bfn.  Coefficient  Atom+Function  
  ----- ------------  ---------------      ----- ------------  ---------------
    96     10.793672   3 C  s               188     10.657209   5 C  s         
   104     -8.582236   3 C  px              196      8.415150   5 C  px        
   142     -7.525934   4 C  s                 5      7.185474   1 C  s         
   120     -5.328419   3 C  d -2            212      5.268476   5 C  d -2      
   258      5.224613   6 C  d -2            242     -5.043241   6 C  px        
 
 Vector   80  Occ=0.000000D+00  E= 3.720847D-01
              MO Center=  6.1D-02, -3.1D-01, -2.2D-04, r^2= 1.3D+01
   Bfn.  Coefficient  Atom+Function         Bfn.  Coefficient  Atom+Function  
  ----- ------------  ---------------      ----- ------------  ---------------
    97      9.945934   3 C  s               189     -9.715852   5 C  s         
    50      9.062762   2 C  s               234     -8.970747   6 C  s         
   371      5.729060  11 H  s               357      5.362020  10 H  py        
   279     -5.218862   7 H  s                51     -5.132596   2 C  s         
   212     -5.038434   5 C  d -2            311     -5.006612   8 H  py        
 
 Vector   81  Occ=0.000000D+00  E= 3.819133D-01
              MO Center=  3.3D-02, -5.7D-01, -5.8D-06, r^2= 1.6D+01
   Bfn.  Coefficient  Atom+Function         Bfn.  Coefficient  Atom+Function  
  ----- ------------  ---------------      ----- ------------  ---------------
   166      9.074287   4 C  d -2            333      7.119416   9 H  px        
   150     -6.661884   4 C  px              216     -6.556765   5 C  d  2      
   124      6.082846   3 C  d  2            279      5.912070   7 H  s         
   371     -5.829965  11 H  s               310      5.090208   8 H  px        
   356      5.014153  10 H  px              188      4.863687   5 C  s         
 
 Vector   82  Occ=0.000000D+00  E= 3.932541D-01
              MO Center= -4.1D-02,  4.6D-01,  2.0D-04, r^2= 1.5D+01
   Bfn.  Coefficient  Atom+Function         Bfn.  Coefficient  Atom+Function  
  ----- ------------  ---------------      ----- ------------  ---------------
    12     12.194358   1 C  px              235     11.169404   6 C  s         
    51    -10.991597   2 C  s                78     -9.079170   2 C  d  2      
   262      8.778368   6 C  d  2             15     -6.838178   1 C  px        
   216      6.649925   5 C  d  2            124     -5.863406   3 C  d  2      
   153     -5.862368   4 C  px              379     -5.810622  11 H  px        
 
 Vector   83  Occ=0.000000D+00  E= 3.960437D-01
              MO Center= -5.1D-02,  8.3D-01,  1.9D-04, r^2= 1.2D+01
   Bfn.  Coefficient  Atom+Function         Bfn.  Coefficient  Atom+Function  
  ----- ------------  ---------------      ----- ------------  ---------------
   152     -7.532820   4 C  pz              106      7.334244   3 C  pz        
   198      7.345420   5 C  pz               60     -6.477630   2 C  pz        
   244     -6.484348   6 C  pz              167     -6.334505   4 C  d -1      
   215      5.109831   5 C  d  1            123     -4.721069   3 C  d  1      
    14      4.575899   1 C  pz              259      4.031979   6 C  d -1      
 
 Vector   84  Occ=0.000000D+00  E= 4.017328D-01
              MO Center= -4.6D-02,  5.2D-01, -7.1D-04, r^2= 1.5D+01
   Bfn.  Coefficient  Atom+Function         Bfn.  Coefficient  Atom+Function  
  ----- ------------  ---------------      ----- ------------  ---------------
     5     51.611187   1 C  s                51    -20.223290   2 C  s         
   235    -19.246088   6 C  s                97    -17.530478   3 C  s         
   189    -17.183254   5 C  s               143     11.605830   4 C  s         
   142    -10.287267   4 C  s                 4     -9.656325   1 C  s         
   234     -8.054266   6 C  s               325      7.878889   9 H  s         
 
 Vector   85  Occ=0.000000D+00  E= 4.052914D-01
              MO Center= -5.9D-03,  8.9D-02, -6.8D-05, r^2= 1.3D+01
   Bfn.  Coefficient  Atom+Function         Bfn.  Coefficient  Atom+Function  
  ----- ------------  ---------------      ----- ------------  ---------------
     5     33.882566   1 C  s               143     17.755358   4 C  s         
   235    -13.256804   6 C  s                51    -12.733960   2 C  s         
    96     10.094563   3 C  s               188      9.892699   5 C  s         
   189     -7.692202   5 C  s                97     -7.337489   3 C  s         
   262      6.996391   6 C  d  2             78      6.900638   2 C  d  2      
 
 Vector   86  Occ=0.000000D+00  E= 4.130559D-01
[...]
     Occ.   19 beta  a   ---  Virt.   24 beta  a    0.21796 X
     Occ.   20 beta  a   ---  Virt.   22 beta  a   -0.14274 X
  ----------------------------------------------------------------------------
  Root  27         a              0.251954427 a.u.                6.8560 eV 
  <S2> =   1.6614
  ----------------------------------------------------------------------------
     Transition Moments    X -0.00002   Y -0.00000   Z -0.24440
     Transition Moments   XX -0.00005  XY  0.00006  XZ -0.00905
     Transition Moments   YY -0.00013  YZ -0.16798  ZZ -0.00003
     Dipole Oscillator Strength                    0.0100326480
     Electric Quadrupole                           0.0000000024
     Magnetic Dipole                               0.0000000310
     Total Oscillator Strength                     0.0100326814
 
     Occ.   19 alpha a   ---  Virt.   26 alpha a   -0.97704 X
     Occ.   19 alpha a   ---  Virt.   35 alpha a    0.07080 X
     Occ.   19 alpha a   ---  Virt.   36 alpha a    0.07326 X
     Occ.   20 alpha a   ---  Virt.   25 alpha a   -0.11676 X
     Occ.   20 alpha a   ---  Virt.   26 alpha a    0.09899 X
     Occ.   20 beta  a   ---  Virt.   26 beta  a   -0.05065 X
  ----------------------------------------------------------------------------
  Root  28         a              0.252656728 a.u.                6.8751 eV 
  <S2> =   1.8941
  ----------------------------------------------------------------------------
     Transition Moments    X -0.00003   Y -0.00001   Z  0.01101
     Transition Moments   XX -0.00000  XY  0.00002  XZ -0.39245
     Transition Moments   YY -0.00007  YZ -0.01557  ZZ -0.00002
     Dipole Oscillator Strength                    0.0000204325
     Electric Quadrupole                           0.0000000132
     Magnetic Dipole                               0.0000000096
     Total Oscillator Strength                     0.0000204554
 
     Occ.   19 alpha a   ---  Virt.   25 alpha a    0.24506 X
     Occ.   19 alpha a   ---  Virt.   26 alpha a    0.09871 X
     Occ.   20 alpha a   ---  Virt.   26 alpha a    0.95561 X
     Occ.   20 alpha a   ---  Virt.   35 alpha a   -0.06123 X
     Occ.   20 alpha a   ---  Virt.   36 alpha a   -0.06515 X
     Occ.   19 beta  a   ---  Virt.   26 beta  a   -0.06763 X
  ----------------------------------------------------------------------------
  Root  29         a              0.253972137 a.u.                6.9109 eV 
  <S2> =   1.6125
  ----------------------------------------------------------------------------
     Transition Moments    X  0.00006   Y -0.00002   Z  0.00126
     Transition Moments   XX -0.00003  XY  0.00004  XZ -0.49464
     Transition Moments   YY -0.00011  YZ -0.02821  ZZ -0.00003
     Dipole Oscillator Strength                    0.0000002713
     Electric Quadrupole                           0.0000000214
     Magnetic Dipole                               0.0000000110
     Total Oscillator Strength                     0.0000003036
 
     Occ.   20 alpha a   ---  Virt.   26 alpha a    0.07192 X
     Occ.   19 beta  a   ---  Virt.   26 beta  a    0.98504 X
     Occ.   19 beta  a   ---  Virt.   35 beta  a   -0.05780 X
     Occ.   19 beta  a   ---  Virt.   36 beta  a   -0.07400 X
     Occ.   20 beta  a   ---  Virt.   25 beta  a    0.09670 X
  ----------------------------------------------------------------------------
  Root  30         a              0.254723331 a.u.                6.9314 eV 
  <S2> =   0.7699
  ----------------------------------------------------------------------------
     Transition Moments    X  1.50578   Y  0.09046   Z -0.00003
     Transition Moments   XX  0.01384  XY -0.18627  XZ  0.00004
     Transition Moments   YY -0.03327  YZ -0.00002  ZZ -0.00298
     Dipole Oscillator Strength                    0.3864246163
     Electric Quadrupole                           0.0000000031
     Magnetic Dipole                               0.0000000177
     Total Oscillator Strength                     0.3864246372
 
     Occ.   19 alpha a   ---  Virt.   22 alpha a    0.38013 X
     Occ.   19 alpha a   ---  Virt.   22 alpha a   -0.05315 Y
     Occ.   20 alpha a   ---  Virt.   23 alpha a   -0.42732 X
     Occ.   20 alpha a   ---  Virt.   23 alpha a    0.05108 Y
     Occ.   20 alpha a   ---  Virt.   29 alpha a    0.14034 X
     Occ.   21 alpha a   ---  Virt.   25 alpha a   -0.07587 X
     Occ.   21 alpha a   ---  Virt.   27 alpha a    0.38471 X
     Occ.   13 beta  a   ---  Virt.   21 beta  a   -0.12853 X
     Occ.   15 beta  a   ---  Virt.   21 beta  a   -0.27173 X
     Occ.   19 beta  a   ---  Virt.   24 beta  a   -0.49932 X
     Occ.   19 beta  a   ---  Virt.   29 beta  a    0.13937 X
     Occ.   20 beta  a   ---  Virt.   22 beta  a    0.34927 X
     Occ.   20 beta  a   ---  Virt.   22 beta  a   -0.05622 Y
  ----------------------------------------------------------------------------
  Root  31         a              0.255323638 a.u.                6.9477 eV 
  <S2> =   0.8003
  ----------------------------------------------------------------------------
     Transition Moments    X -0.03207   Y  0.63683   Z  0.00000
     Transition Moments   XX  0.65202  XY -0.08119  XZ -0.00002
     Transition Moments   YY  1.88642  YZ  0.00003  ZZ  0.14700
     Dipole Oscillator Strength                    0.0692064496
     Electric Quadrupole                           0.0000000716
     Magnetic Dipole                               0.0000000000
     Total Oscillator Strength                     0.0692065211
 
     Occ.   19 alpha a   ---  Virt.   23 alpha a   -0.10544 X
     Occ.   20 alpha a   ---  Virt.   22 alpha a   -0.11473 X
     Occ.   21 alpha a   ---  Virt.   26 alpha a   -0.18449 X
     Occ.   21 alpha a   ---  Virt.   28 alpha a    0.91006 X
     Occ.   21 alpha a   ---  Virt.   30 alpha a    0.12833 X
     Occ.   21 alpha a   ---  Virt.   31 alpha a    0.16292 X
     Occ.   21 alpha a   ---  Virt.   48 alpha a   -0.05656 X
     Occ.   16 beta  a   ---  Virt.   21 beta  a   -0.18743 X
     Occ.   19 beta  a   ---  Virt.   22 beta  a   -0.10954 X
     Occ.   20 beta  a   ---  Virt.   24 beta  a   -0.09627 X
  ----------------------------------------------------------------------------
  Root  32         a              0.260673618 a.u.                7.0933 eV 
  <S2> =   0.7992
  ----------------------------------------------------------------------------
     Transition Moments    X -0.00001   Y  0.00001   Z -0.09574
     Transition Moments   XX  0.00001  XY  0.00000  XZ  0.04568
     Transition Moments   YY  0.00004  YZ -0.70606  ZZ -0.00000
     Dipole Oscillator Strength                    0.0015930138
     Electric Quadrupole                           0.0000000472
     Magnetic Dipole                               0.0000000334
     Total Oscillator Strength                     0.0015930945
 
     Occ.   21 alpha a   ---  Virt.   29 alpha a    0.97946 X
     Occ.   21 alpha a   ---  Virt.   33 alpha a    0.18004 X
  ----------------------------------------------------------------------------
  Root  33         a              0.265414987 a.u.                7.2223 eV 
  <S2> =   1.7806
  ----------------------------------------------------------------------------
     Transition Moments    X  0.00001   Y  0.00001   Z  0.00007
     Transition Moments   XX -0.00006  XY  0.00002  XZ  0.54597
     Transition Moments   YY -0.00003  YZ  0.03595  ZZ -0.00004
     Dipole Oscillator Strength                    0.0000000008
     Electric Quadrupole                           0.0000000298
     Magnetic Dipole                               0.0000000005
     Total Oscillator Strength                     0.0000000312
 
     Occ.   20 beta  a   ---  Virt.   27 beta  a    0.99107 X
     Occ.   20 beta  a   ---  Virt.   38 beta  a   -0.09650 X
  ----------------------------------------------------------------------------
  Root  34         a              0.267142961 a.u.                7.2693 eV 
  <S2> =   0.8198
  ----------------------------------------------------------------------------
     Transition Moments    X -0.07679   Y  1.19945   Z -0.00000
     Transition Moments   XX -0.01221  XY  0.04135  XZ -0.00001
     Transition Moments   YY -0.69829  YZ -0.00005  ZZ -0.04444
     Dipole Oscillator Strength                    0.2572726032
     Electric Quadrupole                           0.0000000154
     Magnetic Dipole                               0.0000000000
     Total Oscillator Strength                     0.2572726186
 
     Occ.   17 alpha a   ---  Virt.   23 alpha a    0.08501 X
     Occ.   19 alpha a   ---  Virt.   23 alpha a   -0.30477 X
     Occ.   19 alpha a   ---  Virt.   29 alpha a   -0.16093 X
     Occ.   20 alpha a   ---  Virt.   22 alpha a   -0.22281 X
     Occ.   21 alpha a   ---  Virt.   28 alpha a   -0.30047 X
     Occ.   21 alpha a   ---  Virt.   30 alpha a    0.43214 X
     Occ.   21 alpha a   ---  Virt.   31 alpha a   -0.08090 X
     Occ.   14 beta  a   ---  Virt.   21 beta  a    0.08797 X
     Occ.   16 beta  a   ---  Virt.   21 beta  a   -0.50007 X
     Occ.   19 beta  a   ---  Virt.   22 beta  a   -0.22378 X
     Occ.   20 beta  a   ---  Virt.   24 beta  a   -0.30740 X
     Occ.   20 beta  a   ---  Virt.   29 beta  a   -0.34125 X
  ----------------------------------------------------------------------------
  Root  35         a              0.270827979 a.u.                7.3696 eV 
  <S2> =   2.7186
  ----------------------------------------------------------------------------
     Transition Moments    X  0.00001   Y  0.00001   Z  0.00921
     Transition Moments   XX -0.00001  XY  0.00001  XZ  0.00426
     Transition Moments   YY -0.00002  YZ  0.13168  ZZ  0.00000
     Dipole Oscillator Strength                    0.0000153213
     Electric Quadrupole                           0.0000000018
     Magnetic Dipole                               0.0000000000
     Total Oscillator Strength                     0.0000153231
 
     Occ.   20 alpha a   ---  Virt.   27 alpha a   -0.78105 X
     Occ.   20 alpha a   ---  Virt.   38 alpha a    0.08660 X
     Occ.   19 beta  a   ---  Virt.   27 beta  a    0.59757 X
     Occ.   19 beta  a   ---  Virt.   38 beta  a   -0.07012 X
     Occ.   20 beta  a   ---  Virt.   28 beta  a    0.05463 X
     Occ.   20 beta  a   ---  Virt.   30 beta  a    0.06190 X
  ----------------------------------------------------------------------------
  Root  36         a              0.271244520 a.u.                7.3809 eV 
  <S2> =   2.7412
  ----------------------------------------------------------------------------
     Transition Moments    X  0.04799   Y  0.00613   Z -0.00000
     Transition Moments   XX -0.00290  XY -0.02868  XZ  0.00001
     Transition Moments   YY  0.00071  YZ -0.00003  ZZ -0.00185
     Dipole Oscillator Strength                    0.0004232661
     Electric Quadrupole                           0.0000000001
     Magnetic Dipole                               0.0000000018
     Total Oscillator Strength                     0.0004232680
 
     Occ.   17 alpha a   ---  Virt.   22 alpha a    0.59836 X
     Occ.   17 alpha a   ---  Virt.   41 alpha a   -0.05241 X
     Occ.   19 alpha a   ---  Virt.   32 alpha a   -0.08366 X
     Occ.   20 alpha a   ---  Virt.   29 alpha a    0.16059 X
     Occ.   20 alpha a   ---  Virt.   44 alpha a   -0.22710 X
     Occ.   20 alpha a   ---  Virt.   47 alpha a    0.17376 X
     Occ.   17 beta  a   ---  Virt.   22 beta  a   -0.64453 X
     Occ.   17 beta  a   ---  Virt.   41 beta  a    0.05434 X
     Occ.   19 beta  a   ---  Virt.   29 beta  a   -0.10440 X
     Occ.   19 beta  a   ---  Virt.   44 beta  a    0.20076 X
     Occ.   19 beta  a   ---  Virt.   47 beta  a   -0.16679 X
     Occ.   20 beta  a   ---  Virt.   31 beta  a    0.10180 X
  ----------------------------------------------------------------------------
  Root  37         a              0.271694571 a.u.                7.3932 eV 
  <S2> =   1.0357
  ----------------------------------------------------------------------------
     Transition Moments    X -0.03414   Y  0.52766   Z -0.00000
     Transition Moments   XX -1.06356  XY -0.11682  XZ  0.00001
     Transition Moments   YY  0.75928  YZ -0.00000  ZZ -0.24139
     Dipole Oscillator Strength                    0.0506414131
     Electric Quadrupole                           0.0000000905
     Magnetic Dipole                               0.0000000000
     Total Oscillator Strength                     0.0506415035
 
     Occ.   17 alpha a   ---  Virt.   23 alpha a    0.06347 X
     Occ.   19 alpha a   ---  Virt.   23 alpha a   -0.09590 X
     Occ.   21 alpha a   ---  Virt.   30 alpha a   -0.79961 X
     Occ.   21 alpha a   ---  Virt.   31 alpha a    0.20710 X
     Occ.   21 alpha a   ---  Virt.   35 alpha a   -0.07536 X
     Occ.   21 alpha a   ---  Virt.   40 alpha a    0.05693 X
     Occ.   14 beta  a   ---  Virt.   21 beta  a    0.06500 X
     Occ.   16 beta  a   ---  Virt.   21 beta  a   -0.19527 X
     Occ.   19 beta  a   ---  Virt.   22 beta  a   -0.06182 X
     Occ.   20 beta  a   ---  Virt.   24 beta  a   -0.10069 X
     Occ.   20 beta  a   ---  Virt.   29 beta  a   -0.47424 X
  ----------------------------------------------------------------------------
  Root  38         a              0.271812104 a.u.                7.3964 eV 
  <S2> =   0.8157
  ----------------------------------------------------------------------------
     Transition Moments    X -0.00001   Y  0.00005   Z -0.02497
     Transition Moments   XX -0.00009  XY -0.00007  XZ  0.02779
     Transition Moments   YY  0.00013  YZ -0.87554  ZZ -0.00004
     Dipole Oscillator Strength                    0.0001129436
     Electric Quadrupole                           0.0000000821
     Magnetic Dipole                               0.0000000038
     Total Oscillator Strength                     0.0001130295
 
     Occ.   20 alpha a   ---  Virt.   27 alpha a    0.59477 X
     Occ.   20 alpha a   ---  Virt.   38 alpha a   -0.05110 X
     Occ.   19 beta  a   ---  Virt.   27 beta  a    0.78537 X
     Occ.   19 beta  a   ---  Virt.   38 beta  a   -0.07327 X
     Occ.   20 beta  a   ---  Virt.   28 beta  a   -0.12625 X
  ----------------------------------------------------------------------------
  Root  39         a              0.272272505 a.u.                7.4089 eV 
  <S2> =   1.7236
  ----------------------------------------------------------------------------
     Transition Moments    X -0.00001   Y  0.00000   Z  0.00143
     Transition Moments   XX  0.00006  XY -0.00002  XZ -0.55077
     Transition Moments   YY  0.00000  YZ  0.00926  ZZ  0.00003
     Dipole Oscillator Strength                    0.0000003707
     Electric Quadrupole                           0.0000000326
     Magnetic Dipole                               0.0000000013
     Total Oscillator Strength                     0.0000004046
 
     Occ.   19 alpha a   ---  Virt.   27 alpha a   -0.98996 X
     Occ.   19 alpha a   ---  Virt.   38 alpha a    0.09586 X
  ----------------------------------------------------------------------------
  Root  40         a              0.272515689 a.u.                7.4155 eV 
  <S2> =   1.9640
  ----------------------------------------------------------------------------
     Transition Moments    X -0.00001   Y  0.00004   Z  0.04155
     Transition Moments   XX  0.00002  XY  0.00002  XZ -0.02778
     Transition Moments   YY  0.00006  YZ  0.44227  ZZ  0.00001
     Dipole Oscillator Strength                    0.0003137004
     Electric Quadrupole                           0.0000000212
     Magnetic Dipole                               0.0000000053
     Total Oscillator Strength                     0.0003137269
 
     Occ.   19 alpha a   ---  Virt.   28 alpha a   -0.11739 X
     Occ.   20 alpha a   ---  Virt.   27 alpha a    0.12779 X
     Occ.   17 beta  a   ---  Virt.   21 beta  a   -0.05488 X
     Occ.   19 beta  a   ---  Virt.   27 beta  a    0.06251 X
     Occ.   20 beta  a   ---  Virt.   28 beta  a    0.96961 X
     Occ.   20 beta  a   ---  Virt.   30 beta  a    0.05585 X
     Occ.   20 beta  a   ---  Virt.   32 beta  a    0.07480 X
     Occ.   20 beta  a   ---  Virt.   43 beta  a    0.08096 X
 
              Target root =      1
          Target symmetry = none
      Ground state energy =   -231.646317712428
        Excitation energy =      0.106107441594
     Excited state energy =   -231.540210270834
 
  stored tddft:energy   -231.540210270834     

 Task  times  cpu:     2997.3s     wall:     3085.7s
 
 
                                NWChem Input Module
                                -------------------
 
 
 Summary of allocated global arrays
-----------------------------------
  No active global arrays



                         GA Statistics for process    0
                         ------------------------------

       create   destroy   get      put      acc     scatter   gather  read&inc
calls: 9544     9544     1.01e+07 4.29e+06 2.10e+06 5660        0      261     
number of processes/call 1.32e+00 1.71e+00 1.91e+00 0.00e+00 0.00e+00
bytes total:             8.78e+10 1.16e+10 9.35e+10 6.26e+04 0.00e+00 2.09e+03
bytes remote:            6.39e+10 1.09e+09 8.92e+10 0.00e+00 0.00e+00 0.00e+00
Max memory consumed for GA by this process: 205086464 bytes
 
MA_summarize_allocated_blocks: starting scan ...
MA_summarize_allocated_blocks: scan completed: 0 heap blocks, 0 stack blocks
MA usage statistics:

	allocation statistics:
					      heap	     stack
					      ----	     -----
	current number of blocks	         0	         0
	maximum number of blocks	        20	        52
	current total bytes		         0	         0
	maximum total bytes		   1166016	  68276392
	maximum total K-bytes		      1167	     68277
	maximum total M-bytes		         2	        69
 
 
                                     CITATION
                                     --------
                Please cite the following reference when publishing
                           results obtained with NWChem:
 
                 M. Valiev, E.J. Bylaska, N. Govind, K. Kowalski,
              T.P. Straatsma, H.J.J. van Dam, D. Wang, J. Nieplocha,
                        E. Apra, T.L. Windus, W.A. de Jong
                 "NWChem: a comprehensive and scalable open-source
                  solution for large scale molecular simulations"
                      Comput. Phys. Commun. 181, 1477 (2010)
                           doi:10.1016/j.cpc.2010.04.018
 
                                      AUTHORS
                                      -------
          E. Apra, E. J. Bylaska, W. A. de Jong, N. Govind, K. Kowalski,
       T. P. Straatsma, M. Valiev, H. J. J. van Dam, D. Wang, T. L. Windus,
        J. Hammond, J. Autschbach, K. Bhaskaran-Nair, J. Brabec, K. Lopata,
    S. A. Fischer, S. Krishnamoorthy, M. Jacquelin, W. Ma, M. Klemm, O. Villa,
      Y. Chen, V. Anisimov, F. Aquino, S. Hirata, M. T. Hackler, V. Konjkov,
            D. Mejia-Rodriguez, T. Risthaus, M. Malagoli, A. Marenich,
   A. Otero-de-la-Roza, J. Mullin, P. Nichols, R. Peverati, J. Pittner, Y. Zhao,
        P.-D. Fan, A. Fonari, M. J. Williamson, R. J. Harrison, J. R. Rehr,
      M. Dupuis, D. Silverstein, D. M. A. Smith, J. Nieplocha, V. Tipparaju,
    M. Krishnan, B. E. Van Kuiken, A. Vazquez-Mayagoitia, L. Jensen, M. Swart,
      Q. Wu, T. Van Voorhis, A. A. Auer, M. Nooijen, L. D. Crosby, E. Brown,
      G. Cisneros, G. I. Fann, H. Fruchtl, J. Garza, K. Hirao, R. A. Kendall,
      J. A. Nichols, K. Tsemekhman, K. Wolinski, J. Anchell, D. E. Bernholdt,
      P. Borowski, T. Clark, D. Clerc, H. Dachsel, M. J. O. Deegan, K. Dyall,
    D. Elwood, E. Glendening, M. Gutowski, A. C. Hess, J. Jaffe, B. G. Johnson,
     J. Ju, R. Kobayashi, R. Kutteh, Z. Lin, R. Littlefield, X. Long, B. Meng,
      T. Nakajima, S. Niu, L. Pollack, M. Rosing, K. Glaesemann, G. Sandrone,
      M. Stave, H. Taylor, G. Thomas, J. H. van Lenthe, A. T. Wong, Z. Zhang.

 Total times  cpu:     2997.4s     wall:     3085.9s
