 argument  1 = /storage/home/j/jbb5516/normalModes/mode1323.47-p.nw
 


============================== echo of input deck ==============================
echo
start

title "None"

geometry
C    -0.08867996    1.38822799    0.00000005
C    -1.26705177    0.69140960   -0.00000002
C    -1.16676567   -0.70528027   -0.00000002
C     0.08249684   -1.31601557    0.00000004
C     1.24705038   -0.55197892   -0.00000001
C     1.17092313    0.84447897    0.00000005
H    -2.23089806    1.18255861   -0.00000010
H    -2.06894818   -1.30351816   -0.00000009
H     0.15041065   -2.39540667   -0.00000000
H     2.21392486   -1.03889149   -0.00000013
H     2.06721200    1.45017797   -0.00000010
symmetry c1
end

basis spherical
 * library "aug-cc-pvtz"
end

dft
 direct
 mult 2
 iterations 500
 xc b3lyp
end

tddft
 nroots 40
 notriplet
 algorithm 1
end
task tddft energy
================================================================================


                                         
                                         
 
 
              Northwest Computational Chemistry Package (NWChem) 6.8
              ------------------------------------------------------
 
 
                    Environmental Molecular Sciences Laboratory
                       Pacific Northwest National Laboratory
                                Richland, WA 99352
 
                              Copyright (c) 1994-2017
                       Pacific Northwest National Laboratory
                            Battelle Memorial Institute
 
             NWChem is an open-source computational chemistry package
                        distributed under the terms of the
                      Educational Community License (ECL) 2.0
             A copy of the license is included with this distribution
                              in the LICENSE.TXT file
 
                                  ACKNOWLEDGMENT
                                  --------------

            This software and its documentation were developed at the
            EMSL at Pacific Northwest National Laboratory, a multiprogram
            national laboratory, operated for the U.S. Department of Energy
            by Battelle under Contract Number DE-AC05-76RL01830. Support
            for this work was provided by the Department of Energy Office
            of Biological and Environmental Research, Office of Basic
            Energy Sciences, and the Office of Advanced Scientific Computing.


           Job information
           ---------------

    hostname        = comp-sc-0114.acib.production.int.aci.ics.psu.edu
    program         = /gpfs/group/lxj18/default/jeffprograms/nwchem-6.8.1/bin/LINUX64/nwchem
    date            = Sun Sep 20 16:19:51 2020

    compiled        = Wed_Oct_03_14:08:39_2018
    source          = /gpfs/group/lxj18/default/jeffprograms/nwchem-6.8.1
    nwchem branch   = 6.8.1
    nwchem revision = v6.8-143-gdb0d964
    ga revision     = 5.6.5
    use scalapack   = F
    input           = /storage/home/j/jbb5516/normalModes/mode1323.47-p.nw
    prefix          = mode1323.47-p.
    data base       = ./mode1323.47-p.db
    status          = startup
    nproc           =       20
    time left       =     -1s



           Memory information
           ------------------

    heap     =   13107200 doubles =    100.0 Mbytes
    stack    =   13107197 doubles =    100.0 Mbytes
    global   =   26214400 doubles =    200.0 Mbytes (distinct from heap & stack)
    total    =   52428797 doubles =    400.0 Mbytes
    verify   = yes
    hardfail = no 


           Directory information
           ---------------------
 
  0 permanent = .
  0 scratch   = .
 
 
 
 
                                NWChem Input Module
                                -------------------
 
 
                                       None
                                       ----

 Scaling coordinates for geometry "geometry" by  1.889725989
 (inverse scale =  0.529177249)

 Turning off AUTOSYM since
 SYMMETRY directive was detected!
 

          ------
          auto-z
          ------
 
 
                             Geometry "geometry" -> ""
                             -------------------------
 
 Output coordinates in angstroms (scale by  1.889725989 to convert to a.u.)
 
  No.       Tag          Charge          X              Y              Z
 ---- ---------------- ---------- -------------- -------------- --------------
    1 C                    6.0000    -0.08866872     1.38822870     0.00000005
    2 C                    6.0000    -1.26704053     0.69141031    -0.00000002
    3 C                    6.0000    -1.16675443    -0.70527956    -0.00000002
    4 C                    6.0000     0.08250808    -1.31601486     0.00000004
    5 C                    6.0000     1.24706162    -0.55197821    -0.00000001
    6 C                    6.0000     1.17093437     0.84447968     0.00000005
    7 H                    1.0000    -2.23088682     1.18255932    -0.00000010
    8 H                    1.0000    -2.06893694    -1.30351745    -0.00000009
    9 H                    1.0000     0.15042189    -2.39540596    -0.00000000
   10 H                    1.0000     2.21393610    -1.03889078    -0.00000013
   11 H                    1.0000     2.06722324     1.45017868    -0.00000010
 
      Atomic Mass 
      ----------- 
 
      C                 12.000000
      H                  1.007825
 

 Effective nuclear repulsion energy (a.u.)     195.0640259258

            Nuclear Dipole moment (a.u.) 
            ----------------------------
        X                 Y               Z
 ---------------- ---------------- ----------------
     0.0000000000     0.0000000000     0.0000000000
 


                                Z-matrix (autoz)
                                -------- 

 Units are Angstrom for bonds and degrees for angles
 
      Type          Name      I     J     K     L     M      Value
      ----------- --------  ----- ----- ----- ----- ----- ----------
    1 Stretch                  1     2                       1.36898
    2 Stretch                  1     6                       1.37196
    3 Stretch                  2     3                       1.40029
    4 Stretch                  2     7                       1.08177
    5 Stretch                  3     4                       1.39056
    6 Stretch                  3     8                       1.08251
    7 Stretch                  4     5                       1.39282
    8 Stretch                  4     9                       1.08153
    9 Stretch                  5     6                       1.39853
   10 Stretch                  5    10                       1.08256
   11 Stretch                  6    11                       1.08176
   12 Bend                     1     2     3               116.49058
   13 Bend                     1     2     7               122.40036
   14 Bend                     1     6     5               116.46939
   15 Bend                     1     6    11               122.60072
   16 Bend                     2     1     6               126.05345
   17 Bend                     2     3     4               120.15987
   18 Bend                     2     3     8               119.44144
   19 Bend                     3     2     7               121.10906
   20 Bend                     3     4     5               120.67912
   21 Bend                     3     4     9               119.65316
   22 Bend                     4     3     8               120.39868
   23 Bend                     4     5     6               120.14759
   24 Bend                     4     5    10               120.00248
   25 Bend                     5     4     9               119.66773
   26 Bend                     5     6    11               120.92989
   27 Bend                     6     5    10               119.84993
   28 Torsion                  1     2     3     4           0.00000
   29 Torsion                  1     2     3     8        -180.00000
   30 Torsion                  1     6     5     4           0.00000
   31 Torsion                  1     6     5    10         180.00000
   32 Torsion                  2     1     6     5           0.00000
   33 Torsion                  2     1     6    11         180.00000
   34 Torsion                  2     3     4     5           0.00000
   35 Torsion                  2     3     4     9        -180.00000
   36 Torsion                  3     2     1     6           0.00000
   37 Torsion                  3     4     5     6           0.00000
   38 Torsion                  3     4     5    10        -180.00000
   39 Torsion                  4     3     2     7         180.00000
   40 Torsion                  4     5     6    11        -180.00000
   41 Torsion                  5     4     3     8         180.00000
   42 Torsion                  6     1     2     7        -180.00000
   43 Torsion                  6     5     4     9        -180.00000
   44 Torsion                  7     2     3     8           0.00000
   45 Torsion                  8     3     4     9           0.00000
   46 Torsion                  9     4     5    10           0.00000
   47 Torsion                 10     5     6    11           0.00000
 
 
            XYZ format geometry
            -------------------
    11
 geometry
 C                    -0.08866872     1.38822870     0.00000005
 C                    -1.26704053     0.69141031    -0.00000002
 C                    -1.16675443    -0.70527956    -0.00000002
 C                     0.08250808    -1.31601486     0.00000004
 C                     1.24706162    -0.55197821    -0.00000001
 C                     1.17093437     0.84447968     0.00000005
 H                    -2.23088682     1.18255932    -0.00000010
 H                    -2.06893694    -1.30351745    -0.00000009
 H                     0.15042189    -2.39540596    -0.00000000
 H                     2.21393610    -1.03889078    -0.00000013
 H                     2.06722324     1.45017868    -0.00000010
 
 ==============================================================================
                                internuclear distances
 ------------------------------------------------------------------------------
       center one      |      center two      | atomic units |  angstroms
 ------------------------------------------------------------------------------
    2 C                |   1 C                |     2.58700  |     1.36898
    3 C                |   2 C                |     2.64616  |     1.40029
    4 C                |   3 C                |     2.62778  |     1.39056
    5 C                |   4 C                |     2.63204  |     1.39282
    6 C                |   1 C                |     2.59262  |     1.37196
    6 C                |   5 C                |     2.64284  |     1.39853
    7 H                |   2 C                |     2.04425  |     1.08177
    8 H                |   3 C                |     2.04564  |     1.08251
    9 H                |   4 C                |     2.04379  |     1.08153
   10 H                |   5 C                |     2.04574  |     1.08256
   11 H                |   6 C                |     2.04423  |     1.08176
 ------------------------------------------------------------------------------
                         number of included internuclear distances:         11
 ==============================================================================



 ==============================================================================
                                 internuclear angles
 ------------------------------------------------------------------------------
        center 1       |       center 2       |       center 3       |  degrees
 ------------------------------------------------------------------------------
    2 C                |   1 C                |   6 C                |   126.05
    1 C                |   2 C                |   3 C                |   116.49
    1 C                |   2 C                |   7 H                |   122.40
    3 C                |   2 C                |   7 H                |   121.11
    2 C                |   3 C                |   4 C                |   120.16
    2 C                |   3 C                |   8 H                |   119.44
    4 C                |   3 C                |   8 H                |   120.40
    3 C                |   4 C                |   5 C                |   120.68
    3 C                |   4 C                |   9 H                |   119.65
    5 C                |   4 C                |   9 H                |   119.67
    4 C                |   5 C                |   6 C                |   120.15
    4 C                |   5 C                |  10 H                |   120.00
    6 C                |   5 C                |  10 H                |   119.85
    1 C                |   6 C                |   5 C                |   116.47
    1 C                |   6 C                |  11 H                |   122.60
    5 C                |   6 C                |  11 H                |   120.93
 ------------------------------------------------------------------------------
                            number of included internuclear angles:         16
 ==============================================================================





 Summary of "ao basis" -> "" (spherical)
 ------------------------------------------------------------------------------
       Tag                 Description            Shells   Functions and Types
 ---------------- ------------------------------  ------  ---------------------
 *                        aug-cc-pvtz                 on all atoms 


 
                                 NWChem DFT Module
                                 -----------------
 
 
                                       None
 
 
                      Basis "ao basis" -> "ao basis" (spherical)
                      -----
  C (Carbon)
  ----------
            Exponent  Coefficients 
       -------------- ---------------------------------------------------------
  1 S  8.23600000E+03  0.000531
  1 S  1.23500000E+03  0.004108
  1 S  2.80800000E+02  0.021087
  1 S  7.92700000E+01  0.081853
  1 S  2.55900000E+01  0.234817
  1 S  8.99700000E+00  0.434401
  1 S  3.31900000E+00  0.346129
  1 S  3.64300000E-01 -0.008983
 
  2 S  8.23600000E+03 -0.000113
  2 S  1.23500000E+03 -0.000878
  2 S  2.80800000E+02 -0.004540
  2 S  7.92700000E+01 -0.018133
  2 S  2.55900000E+01 -0.055760
  2 S  8.99700000E+00 -0.126895
  2 S  3.31900000E+00 -0.170352
  2 S  3.64300000E-01  0.598684
 
  3 S  9.05900000E-01  1.000000
 
  4 S  1.28500000E-01  1.000000
 
  5 S  4.40200000E-02  1.000000
 
  6 P  1.87100000E+01  0.014031
  6 P  4.13300000E+00  0.086866
  6 P  1.20000000E+00  0.290216
 
  7 P  3.82700000E-01  1.000000
 
  8 P  1.20900000E-01  1.000000
 
  9 P  3.56900000E-02  1.000000
 
 10 D  1.09700000E+00  1.000000
 
 11 D  3.18000000E-01  1.000000
 
 12 D  1.00000000E-01  1.000000
 
 13 F  7.61000000E-01  1.000000
 
 14 F  2.68000000E-01  1.000000
 
  H (Hydrogen)
  ------------
            Exponent  Coefficients 
       -------------- ---------------------------------------------------------
  1 S  3.38700000E+01  0.006068
  1 S  5.09500000E+00  0.045308
  1 S  1.15900000E+00  0.202822
 
  2 S  3.25800000E-01  1.000000
 
  3 S  1.02700000E-01  1.000000
 
  4 S  2.52600000E-02  1.000000
 
  5 P  1.40700000E+00  1.000000
 
  6 P  3.88000000E-01  1.000000
 
  7 P  1.02000000E-01  1.000000
 
  8 D  1.05700000E+00  1.000000
 
  9 D  2.47000000E-01  1.000000
 


 Summary of "ao basis" -> "ao basis" (spherical)
 ------------------------------------------------------------------------------
       Tag                 Description            Shells   Functions and Types
 ---------------- ------------------------------  ------  ---------------------
 C                        aug-cc-pvtz               14       46   5s4p3d2f
 H                        aug-cc-pvtz                9       23   4s3p2d




 Summary of "ao basis" -> "ao basis" (spherical)
 ------------------------------------------------------------------------------
       Tag                 Description            Shells   Functions and Types
 ---------------- ------------------------------  ------  ---------------------
 C                        aug-cc-pvtz               14       46   5s4p3d2f
 H                        aug-cc-pvtz                9       23   4s3p2d


  Caching 1-el integrals 
 
            General Information
            -------------------
          SCF calculation type: DFT
          Wavefunction type:  spin polarized.
          No. of atoms     :    11
          No. of electrons :    41
           Alpha electrons :    21
            Beta electrons :    20
          Charge           :     0
          Spin multiplicity:     2
          Use of symmetry is: off; symmetry adaption is: off
          Maximum number of iterations: 500
          This is a Direct SCF calculation.
          AO basis - number of functions:   391
                     number of shells:   129
          Convergence on energy requested:  1.00D-06
          Convergence on density requested:  1.00D-05
          Convergence on gradient requested:  5.00D-04
 
              XC Information
              --------------
                         B3LYP Method XC Potential
                     Hartree-Fock (Exact) Exchange  0.200          
                        Slater Exchange Functional  0.800 local    
                    Becke 1988 Exchange Functional  0.720 non-local
              Lee-Yang-Parr Correlation Functional  0.810          
                  VWN I RPA Correlation Functional  0.190 local    
 
             Grid Information
             ----------------
          Grid used for XC integration:  medium    
          Radial quadrature: Mura-Knowles        
          Angular quadrature: Lebedev. 
          Tag              B.-S. Rad. Rad. Pts. Rad. Cut. Ang. Pts.
          ---              ---------- --------- --------- ---------
          C                   0.70       49          15.0       434
          H                   0.35       45          17.0       434
          Grid pruning is: on 
          Number of quadrature shells:   519
          Spatial weights used:  Erf1
 
          Convergence Information
          -----------------------
          Convergence aids based upon iterative change in 
          total energy or number of iterations. 
          Levelshifting, if invoked, occurs when the 
          HOMO/LUMO gap drops below (HL_TOL):  1.00D-02
          DIIS, if invoked, will attempt to extrapolate 
          using up to (NFOCK): 10 stored Fock matrices.

                    Damping( 0%)  Levelshifting(0.5)       DIIS
                  --------------- ------------------- ---------------
          dE  on:    start            ASAP                start   
          dE off:    2 iters        500 iters           500 iters 

 
      Screening Tolerance Information
      -------------------------------
          Density screening/tol_rho:  1.00D-10
          AO Gaussian exp screening on grid/accAOfunc:  14
          CD Gaussian exp screening on grid/accCDfunc:  20
          XC Gaussian exp screening on grid/accXCfunc:  20
          Schwarz screening/accCoul:  1.00D-08

 
 WARNING : Found     7 linear dependencies 
 S eigenvalue threshold:     1.00000E-05
 Smallest S eigenvalue :     1.46409E-06
 Largest  S eigenvalue :     7.76575E-06
 

 !! The overlap matrix has   7 vectors deemed linearly dependent with
    eigenvalues:
 1.46D-06 2.24D-06 2.83D-06 3.54D-06 5.27D-06 5.95D-06 7.77D-06
 
 
      Superposition of Atomic Density Guess
      -------------------------------------
 
 Sum of atomic energies:        -228.52307259
 
      Non-variational initial energy
      ------------------------------

 Total energy =    -232.667214
 1-e energy   =    -691.328548
 2-e energy   =     263.597308
 HOMO         =      -0.183326
 LUMO         =      -0.022267
 
   Time after variat. SCF:     10.1
   Time prior to 1st pass:     10.1

 Grid_pts file          = ./mode1323.47-p.gridpts.00
 Record size in doubles =  12289        No. of grid_pts per rec  =   3070
 Max. records in memory =      6        Max. recs in file   = 220298520

 Grid integrated density:      40.999765930903
 Requested integration accuracy:   0.10E-05

           Memory utilization after 1st SCF pass: 
           Heap Space remaining (MW):       12.96            12961280
          Stack Space remaining (MW):       13.10            13103676

   convergence    iter        energy       DeltaE   RMS-Dens  Diis-err    time
 ---------------- ----- ----------------- --------- --------- ---------  ------
 d= 0,ls=0.0,diis     1   -231.5814981162 -4.27D+02  6.25D-02  2.09D-01    20.9
                                                     7.07D-02  1.96D-01
 d= 0,ls=0.0,diis     2   -231.6398102521 -5.83D-02  6.15D-02  1.22D-02    31.5
                                                     6.96D-02  1.25D-02
 d= 0,ls=0.0,diis     3   -231.6446049846 -4.79D-03  1.29D-03  3.44D-03    42.2
                                                     1.40D-03  3.50D-03
 d= 0,ls=0.0,diis     4   -231.6457593261 -1.15D-03  2.04D-04  1.13D-03    52.9
                                                     2.09D-04  1.07D-03
 d= 0,ls=0.0,diis     5   -231.6462794925 -5.20D-04  3.41D-05  4.26D-05    63.6
                                                     3.14D-05  4.86D-05
  Resetting Diis
 d= 0,ls=0.0,diis     6   -231.6463074095 -2.79D-05  1.10D-05  7.89D-06    74.3
                                                     1.07D-05  6.40D-06
 d= 0,ls=0.0,diis     7   -231.6463136290 -6.22D-06  7.35D-06  2.16D-06    85.1
                                                     6.56D-06  2.41D-06
 d= 0,ls=0.0,diis     8   -231.6463146567 -1.03D-06  3.07D-06  5.60D-06    95.8
                                                     2.73D-06  4.95D-06
 d= 0,ls=0.0,diis     9   -231.6463180165 -3.36D-06  3.77D-06  3.84D-07   106.5
                                                     3.35D-06  3.26D-07
 d= 0,ls=0.0,diis    10   -231.6463193328 -1.32D-06  2.11D-06  1.87D-07   117.2
                                                     2.42D-06  2.88D-07
 d= 0,ls=0.0,diis    11   -231.6463197602 -4.27D-07  5.92D-07  1.31D-08   127.9
                                                     5.08D-07  9.48D-09


         Total DFT energy =     -231.646319760225
      One electron energy =     -696.561007915207
           Coulomb energy =      304.259854658521
    Exchange-Corr. energy =      -34.409192429376
 Nuclear repulsion energy =      195.064025925837

 Numeric. integr. density =       40.999984456229

     Total iterative time =    117.8s


 
                    DFT Final Alpha Molecular Orbital Analysis
                    ------------------------------------------
 
 Vector    1  Occ=1.000000D+00  E=-1.020525D+01
              MO Center= -8.9D-02,  1.4D+00,  4.8D-08, r^2= 3.0D-02
   Bfn.  Coefficient  Atom+Function         Bfn.  Coefficient  Atom+Function  
  ----- ------------  ---------------      ----- ------------  ---------------
     1      0.984164   1 C  s                 3      0.058855   1 C  s         
    50     -0.039373   2 C  s               279      0.038435   7 H  s         
   143      0.037881   4 C  s               234     -0.037440   6 C  s         
   371      0.037464  11 H  s                51     -0.031026   2 C  s         
   235     -0.030324   6 C  s                47      0.025286   2 C  s         
 
 Vector    2  Occ=1.000000D+00  E=-1.019186D+01
              MO Center=  1.2D+00, -4.9D-01, -1.2D-08, r^2= 1.9D-01
   Bfn.  Coefficient  Atom+Function         Bfn.  Coefficient  Atom+Function  
  ----- ------------  ---------------      ----- ------------  ---------------
   185      0.955564   5 C  s               231      0.218199   6 C  s         
    93      0.103654   3 C  s               142     -0.076776   4 C  s         
   348      0.058515  10 H  s               187      0.057094   5 C  s         
    50      0.050293   2 C  s               139      0.045485   4 C  s         
   279     -0.041058   7 H  s                51      0.039534   2 C  s         
 
 Vector    3  Occ=1.000000D+00  E=-1.019177D+01
              MO Center= -1.1D+00, -6.5D-01, -2.4D-08, r^2= 1.7D-01
   Bfn.  Coefficient  Atom+Function         Bfn.  Coefficient  Atom+Function  
  ----- ------------  ---------------      ----- ------------  ---------------
    93      0.962242   3 C  s                47      0.186640   2 C  s         
   185     -0.098059   5 C  s               142     -0.062169   4 C  s         
   302      0.060444   8 H  s               234      0.058321   6 C  s         
    95      0.057351   3 C  s               371     -0.047704  11 H  s         
   235      0.046725   6 C  s               231     -0.041345   6 C  s         
 
 Vector    4  Occ=1.000000D+00  E=-1.019049D+01
              MO Center=  1.2D+00,  7.7D-01,  4.5D-08, r^2= 1.2D-01
   Bfn.  Coefficient  Atom+Function         Bfn.  Coefficient  Atom+Function  
  ----- ------------  ---------------      ----- ------------  ---------------
   231      0.960277   6 C  s               185     -0.218261   5 C  s         
   371      0.058043  11 H  s               233      0.055834   6 C  s         
    97      0.039203   3 C  s                96      0.034670   3 C  s         
   143      0.032007   4 C  s                12     -0.030933   1 C  px        
   189     -0.030639   5 C  s               188     -0.029981   5 C  s         
 
 Vector    5  Occ=1.000000D+00  E=-1.019018D+01
              MO Center= -1.3D+00,  6.4D-01, -2.4D-08, r^2= 9.8D-02
   Bfn.  Coefficient  Atom+Function         Bfn.  Coefficient  Atom+Function  
  ----- ------------  ---------------      ----- ------------  ---------------
    47      0.967694   2 C  s                93     -0.183429   3 C  s         
   279      0.059692   7 H  s                49      0.056388   2 C  s         
   189      0.040385   5 C  s               188      0.035725   5 C  s         
    97     -0.032229   3 C  s                12      0.031126   1 C  px        
    51     -0.031035   2 C  s               143      0.031122   4 C  s         
 
 Vector    6  Occ=1.000000D+00  E=-1.018432D+01
              MO Center=  8.2D-02, -1.3D+00,  3.9D-08, r^2= 3.5D-02
   Bfn.  Coefficient  Atom+Function         Bfn.  Coefficient  Atom+Function  
  ----- ------------  ---------------      ----- ------------  ---------------
   139      0.984284   4 C  s               141      0.057792   4 C  s         
    96     -0.045944   3 C  s               188     -0.045861   5 C  s         
   325      0.046000   9 H  s               143     -0.043501   4 C  s         
     4      0.040390   1 C  s                93     -0.040245   3 C  s         
   185     -0.039191   5 C  s               151      0.036026   4 C  py        
 
 Vector    7  Occ=1.000000D+00  E=-8.724609D-01
              MO Center= -7.5D-03,  9.9D-02,  5.0D-09, r^2= 2.0D+00
   Bfn.  Coefficient  Atom+Function         Bfn.  Coefficient  Atom+Function  
  ----- ------------  ---------------      ----- ------------  ---------------
     2      0.214059   1 C  s                48      0.202892   2 C  s         
   232      0.202430   6 C  s                94      0.195717   3 C  s         
   186      0.195462   5 C  s               140      0.188221   4 C  s         
   234      0.091300   6 C  s                50      0.089162   2 C  s         
    96      0.088273   3 C  s               188      0.087922   5 C  s         
 
 Vector    8  Occ=1.000000D+00  E=-7.627334D-01
              MO Center= -1.9D-03,  1.0D-01,  2.1D-09, r^2= 2.8D+00
   Bfn.  Coefficient  Atom+Function         Bfn.  Coefficient  Atom+Function  
  ----- ------------  ---------------      ----- ------------  ---------------
    48      0.251588   2 C  s               232     -0.250131   6 C  s         
   186     -0.245308   5 C  s                94      0.242315   3 C  s         
   234     -0.146756   6 C  s                50      0.145684   2 C  s         
   279     -0.130080   7 H  s               371      0.128652  11 H  s         
   150     -0.115538   4 C  px               97      0.110780   3 C  s         
 
 Vector    9  Occ=1.000000D+00  E=-7.537337D-01
              MO Center=  5.2D-03, -1.5D-01, -2.7D-08, r^2= 2.6D+00
   Bfn.  Coefficient  Atom+Function         Bfn.  Coefficient  Atom+Function  
  ----- ------------  ---------------      ----- ------------  ---------------
   140     -0.300912   4 C  s                 2      0.278541   1 C  s         
    94     -0.151314   3 C  s               232      0.149368   6 C  s         
   142     -0.147428   4 C  s                48      0.146678   2 C  s         
   186     -0.146399   5 C  s                96     -0.106170   3 C  s         
   188     -0.103598   5 C  s                 4      0.103004   1 C  s         
 
 Vector   10  Occ=1.000000D+00  E=-6.187402D-01
              MO Center=  1.0D-03,  4.0D-02, -1.0D-08, r^2= 3.6D+00
   Bfn.  Coefficient  Atom+Function         Bfn.  Coefficient  Atom+Function  
  ----- ------------  ---------------      ----- ------------  ---------------
    94     -0.209398   3 C  s               186      0.207717   5 C  s         
   232     -0.200654   6 C  s                48      0.198246   2 C  s         
   234     -0.185647   6 C  s                50      0.181056   2 C  s         
    96     -0.146867   3 C  s               188      0.147077   5 C  s         
     6     -0.127286   1 C  px              144      0.116949   4 C  px        
 
 Vector   11  Occ=1.000000D+00  E=-6.035478D-01
              MO Center=  1.7D-03, -8.7D-02, -3.1D-08, r^2= 3.5D+00
   Bfn.  Coefficient  Atom+Function         Bfn.  Coefficient  Atom+Function  
  ----- ------------  ---------------      ----- ------------  ---------------
   142      0.258329   4 C  s                 2      0.238934   1 C  s         
   140      0.218752   4 C  s                 4      0.198682   1 C  s         
   186     -0.139813   5 C  s                94     -0.136885   3 C  s         
    50     -0.124790   2 C  s               188     -0.121158   5 C  s         
   234     -0.120585   6 C  s                96     -0.117394   3 C  s         
 
 Vector   12  Occ=1.000000D+00  E=-5.277275D-01
              MO Center=  1.1D-02, -1.5D-01, -1.1D-08, r^2= 4.1D+00
   Bfn.  Coefficient  Atom+Function         Bfn.  Coefficient  Atom+Function  
  ----- ------------  ---------------      ----- ------------  ---------------
   148      0.159282   4 C  py              145      0.138859   4 C  py        
   324     -0.126844   9 H  s                55      0.105150   2 C  px        
   240     -0.104927   6 C  py              323     -0.100378   9 H  s         
   237     -0.096170   6 C  py              193     -0.094484   5 C  px        
   278     -0.094286   7 H  s               370     -0.094687  11 H  s         
 
 Vector   13  Occ=1.000000D+00  E=-4.645894D-01
              MO Center=  5.6D-02,  9.7D-02,  4.6D-09, r^2= 2.8D+00
   Bfn.  Coefficient  Atom+Function         Bfn.  Coefficient  Atom+Function  
  ----- ------------  ---------------      ----- ------------  ---------------
     9      0.185329   1 C  px                6      0.171929   1 C  px        
   147      0.169433   4 C  px              144      0.156314   4 C  px        
   239     -0.153200   6 C  px              194     -0.144969   5 C  py        
   101     -0.141007   3 C  px              236     -0.137757   6 C  px        
    56     -0.129721   2 C  py              191     -0.129836   5 C  py        
 
 Vector   14  Occ=1.000000D+00  E=-4.630977D-01
              MO Center= -5.6D-02, -1.5D-01, -4.7D-08, r^2= 4.7D+00
   Bfn.  Coefficient  Atom+Function         Bfn.  Coefficient  Atom+Function  
  ----- ------------  ---------------      ----- ------------  ---------------
     2      0.172955   1 C  s               193      0.146208   5 C  px        
   347      0.138352  10 H  s               190      0.134380   5 C  px        
   301      0.129457   8 H  s               140     -0.126819   4 C  s         
   196      0.125054   5 C  px               55      0.120678   2 C  px        
    96      0.120795   3 C  s               278     -0.116424   7 H  s         
 
 Vector   15  Occ=1.000000D+00  E=-4.399775D-01
              MO Center= -7.3D-03,  2.1D-01, -2.5D-08, r^2= 4.0D+00
   Bfn.  Coefficient  Atom+Function         Bfn.  Coefficient  Atom+Function  
  ----- ------------  ---------------      ----- ------------  ---------------
   240      0.144515   6 C  py              102      0.139263   3 C  py        
   237      0.133385   6 C  py              370      0.132428  11 H  s         
    99      0.130090   3 C  py              278     -0.130477   7 H  s         
    55      0.128717   2 C  px               56     -0.128289   2 C  py        
   194     -0.126986   5 C  py              191     -0.120096   5 C  py        
 
 Vector   16  Occ=1.000000D+00  E=-3.990554D-01
              MO Center=  4.4D-02, -7.8D-01, -9.8D-09, r^2= 3.3D+00
   Bfn.  Coefficient  Atom+Function         Bfn.  Coefficient  Atom+Function  
  ----- ------------  ---------------      ----- ------------  ---------------
   148      0.233415   4 C  py              145      0.209099   4 C  py        
   324     -0.198583   9 H  s               151      0.172636   4 C  py        
   323     -0.154024   9 H  s                10      0.138729   1 C  py        
    13      0.121035   1 C  py              240      0.114786   6 C  py        
    56      0.109667   2 C  py                7      0.108009   1 C  py        
 
 Vector   17  Occ=1.000000D+00  E=-3.837015D-01
              MO Center= -8.4D-03,  1.2D-01, -5.9D-08, r^2= 2.7D+00
   Bfn.  Coefficient  Atom+Function         Bfn.  Coefficient  Atom+Function  
  ----- ------------  ---------------      ----- ------------  ---------------
    11      0.173447   1 C  pz               57      0.156490   2 C  pz        
   241      0.156316   6 C  pz              103      0.152293   3 C  pz        
   195      0.152158   5 C  pz              149      0.145896   4 C  pz        
     8      0.136822   1 C  pz               54      0.125861   2 C  pz        
   238      0.125695   6 C  pz              100      0.121781   3 C  pz        
 
 Vector   18  Occ=1.000000D+00  E=-3.659858D-01
              MO Center=  1.4D-02, -1.4D-01, -2.8D-08, r^2= 4.1D+00
   Bfn.  Coefficient  Atom+Function         Bfn.  Coefficient  Atom+Function  
  ----- ------------  ---------------      ----- ------------  ---------------
   147     -0.169200   4 C  px              193      0.165670   5 C  px        
   101      0.164499   3 C  px              144     -0.159770   4 C  px        
     9      0.149466   1 C  px              190      0.149673   5 C  px        
    98      0.148833   3 C  px                6      0.141635   1 C  px        
   196      0.136273   5 C  px              104      0.132873   3 C  px        
 
 Vector   19  Occ=1.000000D+00  E=-2.685170D-01
              MO Center=  2.7D-03, -1.4D-02,  7.4D-08, r^2= 3.0D+00
   Bfn.  Coefficient  Atom+Function         Bfn.  Coefficient  Atom+Function  
  ----- ------------  ---------------      ----- ------------  ---------------
    11      0.244933   1 C  pz              149     -0.238150   4 C  pz        
     8      0.192623   1 C  pz              146     -0.190386   4 C  pz        
    14      0.176061   1 C  pz              152     -0.171346   4 C  pz        
   195     -0.137646   5 C  pz               57      0.126573   2 C  pz        
   103     -0.115040   3 C  pz              192     -0.109974   5 C  pz        
 
 Vector   20  Occ=1.000000D+00  E=-2.678695D-01
              MO Center= -4.6D-03,  6.1D-02,  2.8D-07, r^2= 3.1D+00
   Bfn.  Coefficient  Atom+Function         Bfn.  Coefficient  Atom+Function  
  ----- ------------  ---------------      ----- ------------  ---------------
   103      0.214052   3 C  pz              241     -0.210333   6 C  pz        
   195     -0.200292   5 C  pz               57      0.196597   2 C  pz        
   100      0.170544   3 C  pz              238     -0.168398   6 C  pz        
   192     -0.159574   5 C  pz               54      0.157471   2 C  pz        
   106      0.154761   3 C  pz              244     -0.154897   6 C  pz        
 
 Vector   21  Occ=1.000000D+00  E=-2.484160D-01
              MO Center= -8.4D-02,  1.3D+00,  8.3D-08, r^2= 2.3D+00
   Bfn.  Coefficient  Atom+Function         Bfn.  Coefficient  Atom+Function  
  ----- ------------  ---------------      ----- ------------  ---------------
    10      0.386000   1 C  py               13      0.337705   1 C  py        
     5      0.335240   1 C  s                 7      0.299343   1 C  py        
     4      0.279436   1 C  s                 2      0.138351   1 C  s         
   243     -0.135986   6 C  py               59     -0.134314   2 C  py        
   102      0.112798   3 C  py              194      0.112030   5 C  py        
 
 Vector   22  Occ=0.000000D+00  E=-2.600699D-02
              MO Center=  9.0D-04,  6.8D-02, -1.0D-06, r^2= 4.3D+00
   Bfn.  Coefficient  Atom+Function         Bfn.  Coefficient  Atom+Function  
  ----- ------------  ---------------      ----- ------------  ---------------
   109     -0.321439   3 C  pz              201      0.318718   5 C  pz        
   247     -0.316761   6 C  pz               63      0.312473   2 C  pz        
   244     -0.228665   6 C  pz               60      0.225241   2 C  pz        
   106     -0.224323   3 C  pz              198      0.223126   5 C  pz        
   241     -0.220153   6 C  pz               57      0.217349   2 C  pz        
 
 Vector   23  Occ=0.000000D+00  E=-1.861123D-02
              MO Center= -1.1D-03, -5.0D-02, -4.1D-06, r^2= 4.3D+00
   Bfn.  Coefficient  Atom+Function         Bfn.  Coefficient  Atom+Function  
  ----- ------------  ---------------      ----- ------------  ---------------
   155      0.439581   4 C  pz               17      0.373551   1 C  pz        
   152      0.273932   4 C  pz               11      0.258941   1 C  pz        
   149      0.250771   4 C  pz               14      0.240470   1 C  pz        
   201     -0.228609   5 C  pz              109     -0.223557   3 C  pz        
    63     -0.202095   2 C  pz                8      0.200615   1 C  pz        
 
 Vector   24  Occ=0.000000D+00  E=-1.011012D-02
              MO Center=  6.0D-02, -9.5D-01, -2.3D-06, r^2= 2.0D+01
   Bfn.  Coefficient  Atom+Function         Bfn.  Coefficient  Atom+Function  
  ----- ------------  ---------------      ----- ------------  ---------------
     5      1.446656   1 C  s               279     -0.977232   7 H  s         
   371     -0.975684  11 H  s               326     -0.741591   9 H  s         
   303     -0.729859   8 H  s               349     -0.730677  10 H  s         
   302     -0.648709   8 H  s               348     -0.651728  10 H  s         
   325     -0.588333   9 H  s               235      0.565932   6 C  s         
 
 Vector   25  Occ=0.000000D+00  E= 4.381873D-03
              MO Center=  9.5D-03, -2.6D-01, -9.5D-06, r^2= 2.7D+01
   Bfn.  Coefficient  Atom+Function         Bfn.  Coefficient  Atom+Function  
  ----- ------------  ---------------      ----- ------------  ---------------
    51      2.752248   2 C  s               235     -2.711622   6 C  s         
    97      2.672863   3 C  s               189     -2.672402   5 C  s         
   303      1.995772   8 H  s               349     -1.997697  10 H  s         
    15      1.866621   1 C  px              153      1.807810   4 C  px        
   280      1.545999   7 H  s               372     -1.534144  11 H  s         
 
 Vector   26  Occ=0.000000D+00  E= 8.728828D-03
              MO Center=  1.2D-02, -7.3D-02,  5.5D-05, r^2= 2.7D+01
   Bfn.  Coefficient  Atom+Function         Bfn.  Coefficient  Atom+Function  
  ----- ------------  ---------------      ----- ------------  ---------------
   143      6.245381   4 C  s                51     -4.015596   2 C  s         
   235     -4.004326   6 C  s               326      2.932203   9 H  s         
     5      2.589881   1 C  s               280     -2.384658   7 H  s         
   372     -2.392150  11 H  s               154      1.947501   4 C  py        
   246      1.927063   6 C  py               62      1.837175   2 C  py        
 
 Vector   27  Occ=0.000000D+00  E= 2.670474D-02
              MO Center= -1.9D-02,  2.4D-01, -2.3D-05, r^2= 3.1D+01
   Bfn.  Coefficient  Atom+Function         Bfn.  Coefficient  Atom+Function  
  ----- ------------  ---------------      ----- ------------  ---------------
   280      3.936346   7 H  s               372     -3.928755  11 H  s         
    51      3.665639   2 C  s               235     -3.655078   6 C  s         
   303     -3.605142   8 H  s               349      3.598611  10 H  s         
    61      2.218503   2 C  px               97     -2.197157   3 C  s         
   189      2.183187   5 C  s               199     -2.041292   5 C  px        
 
 Vector   28  Occ=0.000000D+00  E= 3.221606D-02
              MO Center=  4.0D-02, -6.2D-01, -1.2D-04, r^2= 2.9D+01
   Bfn.  Coefficient  Atom+Function         Bfn.  Coefficient  Atom+Function  
  ----- ------------  ---------------      ----- ------------  ---------------
     5      6.397070   1 C  s               326     -4.998349   9 H  s         
   303      3.720347   8 H  s               349      3.730918  10 H  s         
    97     -2.176943   3 C  s               154     -2.176545   4 C  py        
   189     -2.182239   5 C  s               199     -1.648318   5 C  px        
   245      1.638127   6 C  px               61     -1.576828   2 C  px        
 
 Vector   29  Occ=0.000000D+00  E= 4.329433D-02
              MO Center=  1.4D-02, -2.2D-01,  9.9D-06, r^2= 1.3D+01
   Bfn.  Coefficient  Atom+Function         Bfn.  Coefficient  Atom+Function  
  ----- ------------  ---------------      ----- ------------  ---------------
   155      0.598812   4 C  pz               63      0.576771   2 C  pz        
   247      0.576043   6 C  pz               17     -0.260475   1 C  pz        
    60     -0.154813   2 C  pz              244     -0.155003   6 C  pz        
   289     -0.123466   7 H  pz              381     -0.123552  11 H  pz        
   259      0.118596   6 C  d -1             77      0.109064   2 C  d  1      
 
 Vector   30  Occ=0.000000D+00  E= 5.496290D-02
              MO Center=  1.1D-02, -1.5D-01, -4.1D-05, r^2= 1.5D+01
   Bfn.  Coefficient  Atom+Function         Bfn.  Coefficient  Atom+Function  
  ----- ------------  ---------------      ----- ------------  ---------------
     5     10.709538   1 C  s               143      5.282043   4 C  s         
    51     -4.505217   2 C  s               235     -4.471516   6 C  s         
   303     -2.796259   8 H  s               349     -2.805918  10 H  s         
   326      2.060455   9 H  s               199      2.003056   5 C  px        
   189     -1.962124   5 C  s                97     -1.941208   3 C  s         
 
 Vector   31  Occ=0.000000D+00  E= 6.334974D-02
              MO Center= -4.2D-02,  6.5D-01, -1.0D-04, r^2= 2.8D+01
   Bfn.  Coefficient  Atom+Function         Bfn.  Coefficient  Atom+Function  
  ----- ------------  ---------------      ----- ------------  ---------------
     5     24.377569   1 C  s                51     -9.901153   2 C  s         
   235     -9.804464   6 C  s               143      7.620637   4 C  s         
   189     -6.537128   5 C  s                97     -6.484813   3 C  s         
   326      5.865041   9 H  s               154      4.770078   4 C  py        
   303     -4.686944   8 H  s               349     -4.677677  10 H  s         
 
 Vector   32  Occ=0.000000D+00  E= 6.574604D-02
              MO Center=  3.7D-03, -2.5D-02,  5.4D-04, r^2= 1.8D+01
   Bfn.  Coefficient  Atom+Function         Bfn.  Coefficient  Atom+Function  
  ----- ------------  ---------------      ----- ------------  ---------------
   201     -0.979448   5 C  pz              109      0.973713   3 C  pz        
    63      0.772453   2 C  pz              247     -0.768101   6 C  pz        
   169     -0.677110   4 C  d  1             31     -0.583340   1 C  d  1      
   106      0.495671   3 C  pz               60      0.487355   2 C  pz        
   198     -0.489144   5 C  pz              244     -0.489375   6 C  pz        
 
 Vector   33  Occ=0.000000D+00  E= 6.826309D-02
              MO Center= -1.4D-02,  1.9D-01, -2.7D-04, r^2= 1.8D+01
   Bfn.  Coefficient  Atom+Function         Bfn.  Coefficient  Atom+Function  
  ----- ------------  ---------------      ----- ------------  ---------------
    63      1.024205   2 C  pz              247      1.024470   6 C  pz        
   109     -0.814668   3 C  pz              201     -0.809153   5 C  pz        
   155     -0.750724   4 C  pz               14      0.629595   1 C  pz        
   152     -0.617695   4 C  pz               17      0.458620   1 C  pz        
   213     -0.449919   5 C  d -1            121     -0.405081   3 C  d -1      
 
 Vector   34  Occ=0.000000D+00  E= 7.645653D-02
              MO Center=  9.9D-03, -1.6D-01, -1.3D-04, r^2= 3.4D+01
   Bfn.  Coefficient  Atom+Function         Bfn.  Coefficient  Atom+Function  
  ----- ------------  ---------------      ----- ------------  ---------------
    51     14.082500   2 C  s               235    -13.650459   6 C  s         
    97     12.385375   3 C  s               189    -12.433150   5 C  s         
    15      7.675937   1 C  px              153      7.713154   4 C  px        
   107      4.819515   3 C  px              303      4.679973   8 H  s         
   349     -4.702119  10 H  s               199      4.416876   5 C  px        
 
 Vector   35  Occ=0.000000D+00  E= 7.792150D-02
              MO Center=  1.9D-01, -3.3D+00,  1.3D-04, r^2= 2.1D+01
   Bfn.  Coefficient  Atom+Function         Bfn.  Coefficient  Atom+Function  
  ----- ------------  ---------------      ----- ------------  ---------------
   143     18.271551   4 C  s               235    -13.597971   6 C  s         
    51    -13.288215   2 C  s               326      7.026138   9 H  s         
    62      5.693663   2 C  py              246      5.641831   6 C  py        
   200      5.434619   5 C  py              154      5.279434   4 C  py        
   108      5.003408   3 C  py              279      4.203180   7 H  s         
 
 Vector   36  Occ=0.000000D+00  E= 8.155247D-02
              MO Center= -6.9D-02,  1.4D+00,  7.0D-05, r^2= 2.8D+01
   Bfn.  Coefficient  Atom+Function         Bfn.  Coefficient  Atom+Function  
  ----- ------------  ---------------      ----- ------------  ---------------
   143     20.709934   4 C  s                51     -8.955673   2 C  s         
   235     -8.936050   6 C  s               246      5.230303   6 C  py        
    62      5.197529   2 C  py              325     -4.965417   9 H  s         
   280     -4.559252   7 H  s               372     -4.569411  11 H  s         
   200      4.484837   5 C  py              326      4.499254   9 H  s         
 
 Vector   37  Occ=0.000000D+00  E= 8.317327D-02
              MO Center=  4.0D-02, -7.3D-01, -1.1D-05, r^2= 2.2D+01
   Bfn.  Coefficient  Atom+Function         Bfn.  Coefficient  Atom+Function  
  ----- ------------  ---------------      ----- ------------  ---------------
    97      4.958150   3 C  s               189     -4.927254   5 C  s         
    51     -3.223374   2 C  s               235      3.041310   6 C  s         
   108      2.831868   3 C  py              303      2.799435   8 H  s         
   349     -2.809236  10 H  s               200     -2.643618   5 C  py        
   153      2.602282   4 C  px              188     -2.091401   5 C  s         
 
 Vector   38  Occ=0.000000D+00  E= 9.540099D-02
              MO Center= -5.3D-02,  8.8D-01,  1.4D-05, r^2= 3.1D+01
   Bfn.  Coefficient  Atom+Function         Bfn.  Coefficient  Atom+Function  
  ----- ------------  ---------------      ----- ------------  ---------------
    51     17.730723   2 C  s               235    -17.640106   6 C  s         
   280      7.216678   7 H  s               372     -7.218170  11 H  s         
    97     -6.929363   3 C  s               189      6.883107   5 C  s         
   108     -6.478206   3 C  py              303     -6.200452   8 H  s         
   349      6.202369  10 H  s               200      5.901525   5 C  py        
 
 Vector   39  Occ=0.000000D+00  E= 1.018009D-01
              MO Center= -4.2D-03,  1.1D-01, -3.3D-04, r^2= 1.9D+01
   Bfn.  Coefficient  Atom+Function         Bfn.  Coefficient  Atom+Function  
  ----- ------------  ---------------      ----- ------------  ---------------
    51     13.771684   2 C  s               235    -13.697790   6 C  s         
    97     10.881458   3 C  s               189    -10.884328   5 C  s         
    15      9.999329   1 C  px              153      9.716266   4 C  px        
   246     -6.109334   6 C  py              108     -6.029499   3 C  py        
   200      5.983523   5 C  py               62      5.896423   2 C  py        
 
 Vector   40  Occ=0.000000D+00  E= 1.064760D-01
              MO Center= -1.0D-02,  1.3D-01, -5.7D-04, r^2= 2.1D+01
   Bfn.  Coefficient  Atom+Function         Bfn.  Coefficient  Atom+Function  
  ----- ------------  ---------------      ----- ------------  ---------------
   143     18.275575   4 C  s                51     -9.949100   2 C  s         
   235     -9.926117   6 C  s                 5     -9.462679   1 C  s         
   107     -8.757145   3 C  px              199      7.980355   5 C  px        
   245     -7.047042   6 C  px              200      6.723781   5 C  py        
    61      6.484235   2 C  px              108      5.675053   3 C  py        
 
 Vector   41  Occ=0.000000D+00  E= 1.082038D-01
              MO Center= -2.1D-02,  1.6D-01, -8.8D-05, r^2= 2.2D+01
   Bfn.  Coefficient  Atom+Function         Bfn.  Coefficient  Atom+Function  
  ----- ------------  ---------------      ----- ------------  ---------------
   109     -3.430342   3 C  pz               63      3.384612   2 C  pz        
   247     -3.397387   6 C  pz              201      3.295127   5 C  pz        
   244     -0.700940   6 C  pz               60      0.692518   2 C  pz        
   106     -0.646905   3 C  pz              198      0.626589   5 C  pz        
    77     -0.375889   2 C  d  1            215      0.354519   5 C  d  1      
 
 Vector   42  Occ=0.000000D+00  E= 1.089662D-01
              MO Center=  3.9D-02, -4.7D-01,  2.2D-03, r^2= 2.1D+01
   Bfn.  Coefficient  Atom+Function         Bfn.  Coefficient  Atom+Function  
  ----- ------------  ---------------      ----- ------------  ---------------
   155      5.320636   4 C  pz              201     -3.503789   5 C  pz        
   109     -3.380346   3 C  pz               17      2.510532   1 C  pz        
   152      0.983316   4 C  pz              198     -0.613308   5 C  pz        
   106     -0.593195   3 C  pz              167      0.569574   4 C  d -1      
    63     -0.543090   2 C  pz               14      0.504537   1 C  pz        
 
 Vector   43  Occ=0.000000D+00  E= 1.094992D-01
              MO Center=  2.7D-02, -4.5D-01, -1.1D-03, r^2= 2.7D+01
   Bfn.  Coefficient  Atom+Function         Bfn.  Coefficient  Atom+Function  
  ----- ------------  ---------------      ----- ------------  ---------------
   326      7.668957   9 H  s               154      7.056794   4 C  py        
   303     -6.468907   8 H  s               349     -6.479940  10 H  s         
   143     -5.609754   4 C  s               108     -4.410650   3 C  py        
   200     -4.206626   5 C  py               62     -4.164786   2 C  py        
   246     -4.129240   6 C  py                4      3.925791   1 C  s         
 
 Vector   44  Occ=0.000000D+00  E= 1.178177D-01
              MO Center= -3.9D-02,  6.5D-01, -4.2D-04, r^2= 1.4D+01
   Bfn.  Coefficient  Atom+Function         Bfn.  Coefficient  Atom+Function  
  ----- ------------  ---------------      ----- ------------  ---------------
    17      6.880031   1 C  pz               63     -6.023073   2 C  pz        
   247     -6.023545   6 C  pz              109      5.051311   3 C  pz        
   201      5.055494   5 C  pz              155     -4.823868   4 C  pz        
    14      1.235832   1 C  pz               60     -1.020622   2 C  pz        
   244     -1.020559   6 C  pz              106      0.892220   3 C  pz        
 
 Vector   45  Occ=0.000000D+00  E= 1.264078D-01
              MO Center= -1.2D-02,  2.9D-01, -1.7D-05, r^2= 2.5D+01
   Bfn.  Coefficient  Atom+Function         Bfn.  Coefficient  Atom+Function  
  ----- ------------  ---------------      ----- ------------  ---------------
    51      7.604236   2 C  s               235     -7.572067   6 C  s         
   107      7.175135   3 C  px              199      7.163921   5 C  px        
   245     -7.057477   6 C  px               61     -6.914303   2 C  px        
    15      6.448411   1 C  px              189      6.210684   5 C  s         
    97     -6.175638   3 C  s               153     -5.823482   4 C  px        
 
 Vector   46  Occ=0.000000D+00  E= 1.274498D-01
              MO Center= -2.0D-02,  1.9D-01,  1.3D-04, r^2= 2.6D+01
   Bfn.  Coefficient  Atom+Function         Bfn.  Coefficient  Atom+Function  
  ----- ------------  ---------------      ----- ------------  ---------------
   154     -8.036352   4 C  py               16      7.428599   1 C  py        
   108      6.905800   3 C  py               62     -6.587042   2 C  py        
   200      6.565051   5 C  py              246     -6.381411   6 C  py        
   326     -4.051211   9 H  s                 5      3.564462   1 C  s         
   303      3.191683   8 H  s               349      3.137507  10 H  s         
 
 Vector   47  Occ=0.000000D+00  E= 1.609563D-01
              MO Center= -1.1D-02,  1.4D-01,  9.3D-05, r^2= 1.7D+01
   Bfn.  Coefficient  Atom+Function         Bfn.  Coefficient  Atom+Function  
  ----- ------------  ---------------      ----- ------------  ---------------
    17      8.192758   1 C  pz               63     -8.009810   2 C  pz        
   247     -7.998993   6 C  pz              155     -7.856485   4 C  pz        
   109      7.774920   3 C  pz              201      7.767490   5 C  pz        
    60     -1.192973   2 C  pz              106      1.193755   3 C  pz        
   198      1.191910   5 C  pz              244     -1.190970   6 C  pz        
 
 Vector   48  Occ=0.000000D+00  E= 1.660205D-01
              MO Center= -8.3D-02,  1.4D+00,  3.2D-04, r^2= 2.2D+01
   Bfn.  Coefficient  Atom+Function         Bfn.  Coefficient  Atom+Function  
  ----- ------------  ---------------      ----- ------------  ---------------
     5     59.212291   1 C  s                51    -26.151903   2 C  s         
   143     25.963817   4 C  s               235    -25.814442   6 C  s         
   189    -14.530982   5 C  s                97    -14.301586   3 C  s         
   154      7.427533   4 C  py              245      6.832043   6 C  px        
    61     -6.388783   2 C  px              326      6.156492   9 H  s         
 
 Vector   49  Occ=0.000000D+00  E= 1.754232D-01
              MO Center=  2.5D-02, -3.9D-01, -1.7D-04, r^2= 1.1D+01
   Bfn.  Coefficient  Atom+Function         Bfn.  Coefficient  Atom+Function  
  ----- ------------  ---------------      ----- ------------  ---------------
   335      1.104582   9 H  pz              312      1.079066   8 H  pz        
   358      1.079254  10 H  pz              289      0.973277   7 H  pz        
   381      0.972966  11 H  pz               17      0.959450   1 C  pz        
    63     -0.886489   2 C  pz              247     -0.883420   6 C  pz        
   106     -0.844364   3 C  pz              198     -0.841855   5 C  pz        
 
 Vector   50  Occ=0.000000D+00  E= 1.864234D-01
              MO Center=  2.9D-02, -5.5D-01,  9.6D-05, r^2= 1.5D+01
   Bfn.  Coefficient  Atom+Function         Bfn.  Coefficient  Atom+Function  
  ----- ------------  ---------------      ----- ------------  ---------------
     5     15.509619   1 C  s                97     -7.288992   3 C  s         
   189     -7.257112   5 C  s               235     -4.614436   6 C  s         
   325      4.425211   9 H  s                51     -4.336062   2 C  s         
    62     -4.054743   2 C  py              154      3.980483   4 C  py        
   246     -3.810221   6 C  py              348      3.302591  10 H  s         
 
 Vector   51  Occ=0.000000D+00  E= 1.980402D-01
              MO Center= -2.8D-02,  4.7D-01,  3.6D-04, r^2= 2.3D+01
   Bfn.  Coefficient  Atom+Function         Bfn.  Coefficient  Atom+Function  
  ----- ------------  ---------------      ----- ------------  ---------------
    51     44.567128   2 C  s               235    -44.629790   6 C  s         
    97     25.176380   3 C  s               189    -25.221365   5 C  s         
    15     18.498485   1 C  px              153     17.066160   4 C  px        
   302    -14.043746   8 H  s               348     13.977233  10 H  s         
   200      9.223841   5 C  py              108     -8.518502   3 C  py        
 
 Vector   52  Occ=0.000000D+00  E= 1.984409D-01
              MO Center=  4.3D-02, -7.3D-01, -5.1D-04, r^2= 2.3D+01
   Bfn.  Coefficient  Atom+Function         Bfn.  Coefficient  Atom+Function  
  ----- ------------  ---------------      ----- ------------  ---------------
   143     61.317781   4 C  s                51    -34.737024   2 C  s         
   235    -34.328683   6 C  s               325    -16.863540   9 H  s         
    62     14.768585   2 C  py              246     14.398048   6 C  py        
   200     13.733644   5 C  py              108     12.597372   3 C  py        
     5    -11.580959   1 C  s               279     11.232325   7 H  s         
 
 Vector   53  Occ=0.000000D+00  E= 2.154354D-01
              MO Center=  1.0D-01, -1.4D+00, -4.3D-05, r^2= 1.5D+01
   Bfn.  Coefficient  Atom+Function         Bfn.  Coefficient  Atom+Function  
  ----- ------------  ---------------      ----- ------------  ---------------
   189    -13.928550   5 C  s                97     13.777896   3 C  s         
   188     -6.635385   5 C  s                96      6.454805   3 C  s         
   153      6.311366   4 C  px              371      5.286494  11 H  s         
   279     -4.974779   7 H  s               303      4.732134   8 H  s         
   349     -4.740964  10 H  s                62      4.419752   2 C  py        
 
 Vector   54  Occ=0.000000D+00  E= 2.182609D-01
              MO Center=  3.5D-02, -2.7D-01, -2.2D-04, r^2= 1.5D+01
   Bfn.  Coefficient  Atom+Function         Bfn.  Coefficient  Atom+Function  
  ----- ------------  ---------------      ----- ------------  ---------------
   143     25.558480   4 C  s                51    -20.297736   2 C  s         
     5     15.868757   1 C  s               235    -14.978174   6 C  s         
    16     -6.466087   1 C  py              325     -5.996744   9 H  s         
   246      5.279815   6 C  py               62      4.215274   2 C  py        
   279      3.957896   7 H  s               108      3.824996   3 C  py        
 
 Vector   55  Occ=0.000000D+00  E= 2.191212D-01
              MO Center= -1.2D-02, -9.2D-02,  1.1D-03, r^2= 1.5D+01
   Bfn.  Coefficient  Atom+Function         Bfn.  Coefficient  Atom+Function  
  ----- ------------  ---------------      ----- ------------  ---------------
   235     21.851073   6 C  s                51    -17.395060   2 C  s         
   200     -8.516619   5 C  py              108      7.992947   3 C  py        
    15     -7.504397   1 C  px              302      6.880261   8 H  s         
   348     -6.883163  10 H  s               153     -6.236924   4 C  px        
    62     -4.473709   2 C  py              246      3.394265   6 C  py        
 
 Vector   56  Occ=0.000000D+00  E= 2.301138D-01
              MO Center= -7.4D-02,  2.9D-01,  1.9D-03, r^2= 1.8D+01
   Bfn.  Coefficient  Atom+Function         Bfn.  Coefficient  Atom+Function  
  ----- ------------  ---------------      ----- ------------  ---------------
   107      4.856756   3 C  px              199      4.714171   5 C  px        
   153     -3.564022   4 C  px               50     -3.343634   2 C  s         
   303      3.270732   8 H  s               234      3.201146   6 C  s         
   349     -3.041188  10 H  s                15     -2.623853   1 C  px        
   108      2.321316   3 C  py               59      1.982422   2 C  py        
 
 Vector   57  Occ=0.000000D+00  E= 2.311984D-01
              MO Center=  4.1D-04,  1.0D-03, -3.8D-03, r^2= 1.6D+01
   Bfn.  Coefficient  Atom+Function         Bfn.  Coefficient  Atom+Function  
  ----- ------------  ---------------      ----- ------------  ---------------
   106      2.146432   3 C  pz              198     -2.139110   5 C  pz        
    60      2.044244   2 C  pz              244     -2.049825   6 C  pz        
   312     -1.817798   8 H  pz              358      1.818840  10 H  pz        
   289     -1.721665   7 H  pz              381      1.719399  11 H  pz        
   169     -1.379551   4 C  d  1             31     -1.247153   1 C  d  1      
 
 Vector   58  Occ=0.000000D+00  E= 2.354264D-01
              MO Center= -1.1D-02,  2.2D-01,  3.4D-04, r^2= 1.6D+01
   Bfn.  Coefficient  Atom+Function         Bfn.  Coefficient  Atom+Function  
  ----- ------------  ---------------      ----- ------------  ---------------
   143     14.864278   4 C  s                51    -13.457206   2 C  s         
   199      8.001775   5 C  px              107     -7.954698   3 C  px        
   235     -7.385694   6 C  s                61      5.366755   2 C  px        
   245     -5.246948   6 C  px              349     -4.824683  10 H  s         
     5      4.044156   1 C  s               303     -3.969558   8 H  s         
 
 Vector   59  Occ=0.000000D+00  E= 2.365119D-01
              MO Center=  4.2D-02,  7.3D-02,  1.2D-03, r^2= 1.7D+01
   Bfn.  Coefficient  Atom+Function         Bfn.  Coefficient  Atom+Function  
  ----- ------------  ---------------      ----- ------------  ---------------
    97    -33.001943   3 C  s               189     33.071858   5 C  s         
   235    -32.379906   6 C  s                51     30.421714   2 C  s         
    96    -14.461039   3 C  s               188     14.191603   5 C  s         
   279     11.008310   7 H  s               302    -10.659493   8 H  s         
   348     10.558839  10 H  s               371    -10.507150  11 H  s         
 
 Vector   60  Occ=0.000000D+00  E= 2.434517D-01
              MO Center=  6.1D-04, -4.3D-02, -4.7D-04, r^2= 1.5D+01
   Bfn.  Coefficient  Atom+Function         Bfn.  Coefficient  Atom+Function  
  ----- ------------  ---------------      ----- ------------  ---------------
   152      3.413971   4 C  pz               14     -3.025921   1 C  pz        
   289      2.172648   7 H  pz              381      2.169183  11 H  pz        
   335     -2.124782   9 H  pz              261      2.001429   6 C  d  1      
    77     -1.987870   2 C  d  1             63     -1.600118   2 C  pz        
   247     -1.595879   6 C  pz              155      1.369894   4 C  pz        
 
 Vector   61  Occ=0.000000D+00  E= 2.594991D-01
              MO Center=  3.1D-02, -6.0D-01,  6.1D-05, r^2= 1.7D+01
   Bfn.  Coefficient  Atom+Function         Bfn.  Coefficient  Atom+Function  
  ----- ------------  ---------------      ----- ------------  ---------------
     5      8.708847   1 C  s               108     -6.651552   3 C  py        
   200     -6.052217   5 C  py              303     -5.180606   8 H  s         
   349     -5.175934  10 H  s               199      5.037028   5 C  px        
   197     -4.868928   5 C  py              143     -4.802409   4 C  s         
   105     -4.706387   3 C  py              154      4.362862   4 C  py        
 
 Vector   62  Occ=0.000000D+00  E= 2.620251D-01
              MO Center=  7.5D-02, -1.1D+00, -5.2D-05, r^2= 1.7D+01
   Bfn.  Coefficient  Atom+Function         Bfn.  Coefficient  Atom+Function  
  ----- ------------  ---------------      ----- ------------  ---------------
     5     18.957857   1 C  s               154     15.372208   4 C  py        
   143     15.150771   4 C  s                51    -14.933810   2 C  s         
   235    -14.188482   6 C  s               326      9.186589   9 H  s         
     4      6.018689   1 C  s               189     -4.840587   5 C  s         
   108     -4.670554   3 C  py               97     -4.477773   3 C  s         
 
 Vector   63  Occ=0.000000D+00  E= 2.676760D-01
              MO Center= -4.3D-02,  4.3D-01,  6.3D-05, r^2= 2.0D+01
   Bfn.  Coefficient  Atom+Function         Bfn.  Coefficient  Atom+Function  
  ----- ------------  ---------------      ----- ------------  ---------------
   235    -20.408004   6 C  s                51     19.975736   2 C  s         
    97    -12.018912   3 C  s               189     11.798166   5 C  s         
    61     10.988196   2 C  px              245     10.285520   6 C  px        
   188      8.816859   5 C  s               279      8.813810   7 H  s         
    96     -8.689244   3 C  s               371     -8.709060  11 H  s         
 
 Vector   64  Occ=0.000000D+00  E= 2.747955D-01
              MO Center= -1.1D-02,  2.3D-02,  6.8D-05, r^2= 1.4D+01
   Bfn.  Coefficient  Atom+Function         Bfn.  Coefficient  Atom+Function  
  ----- ------------  ---------------      ----- ------------  ---------------
   143      8.951006   4 C  s                 5      8.704730   1 C  s         
   154      5.772501   4 C  py              279     -5.664430   7 H  s         
   371     -5.641454  11 H  s               302     -4.780681   8 H  s         
   348     -4.513990  10 H  s               325     -4.355990   9 H  s         
    16     -4.037454   1 C  py              246      3.290922   6 C  py        
 
 Vector   65  Occ=0.000000D+00  E= 2.829820D-01
              MO Center=  1.3D-02,  1.8D-01, -2.1D-05, r^2= 1.6D+01
   Bfn.  Coefficient  Atom+Function         Bfn.  Coefficient  Atom+Function  
  ----- ------------  ---------------      ----- ------------  ---------------
    12      9.527818   1 C  px               97      8.933592   3 C  s         
   189     -8.856333   5 C  s               348     -8.207497  10 H  s         
    51     -8.045145   2 C  s               235      7.998298   6 C  s         
   302      7.987653   8 H  s               199      7.686370   5 C  px        
   107      7.112209   3 C  px              150      6.191164   4 C  px        
 
 Vector   66  Occ=0.000000D+00  E= 2.954383D-01
              MO Center=  1.6D-03,  5.2D-02, -1.6D-05, r^2= 1.6D+01
   Bfn.  Coefficient  Atom+Function         Bfn.  Coefficient  Atom+Function  
  ----- ------------  ---------------      ----- ------------  ---------------
   247     -3.213263   6 C  pz               63      3.189296   2 C  pz        
   109     -3.187859   3 C  pz              201      3.189067   5 C  pz        
   289     -2.274875   7 H  pz              381      2.284222  11 H  pz        
    60      2.260426   2 C  pz              358     -2.266220  10 H  pz        
   244     -2.253180   6 C  pz              312      2.257356   8 H  pz        
 
 Vector   67  Occ=0.000000D+00  E= 2.962829D-01
              MO Center= -7.1D-02,  9.6D-01,  4.1D-04, r^2= 1.4D+01
   Bfn.  Coefficient  Atom+Function         Bfn.  Coefficient  Atom+Function  
  ----- ------------  ---------------      ----- ------------  ---------------
     4     10.428933   1 C  s                59     -5.789888   2 C  py        
   243     -5.593833   6 C  py                5      5.527705   1 C  s         
   105     -5.530269   3 C  py              197     -5.146380   5 C  py        
    16      4.276714   1 C  py              279     -4.217223   7 H  s         
   371     -4.157092  11 H  s                13      3.907473   1 C  py        
 
 Vector   68  Occ=0.000000D+00  E= 3.080364D-01
              MO Center= -1.5D-02, -2.7D-01, -4.6D-04, r^2= 1.5D+01
   Bfn.  Coefficient  Atom+Function         Bfn.  Coefficient  Atom+Function  
  ----- ------------  ---------------      ----- ------------  ---------------
   155      5.177679   4 C  pz               14      4.362910   1 C  pz        
   109     -3.737101   3 C  pz              201     -3.741692   5 C  pz        
   335     -2.710812   9 H  pz               60     -2.066776   2 C  pz        
   244     -2.033217   6 C  pz              152      1.850511   4 C  pz        
    17      1.840152   1 C  pz               29     -1.720086   1 C  d -1      
 
 Vector   69  Occ=0.000000D+00  E= 3.150452D-01
              MO Center=  4.5D-02, -7.0D-02,  2.0D-05, r^2= 9.1D+00
   Bfn.  Coefficient  Atom+Function         Bfn.  Coefficient  Atom+Function  
  ----- ------------  ---------------      ----- ------------  ---------------
   261      1.268580   6 C  d  1             77      1.123049   2 C  d  1      
   169     -1.086510   4 C  d  1             75     -0.975067   2 C  d -1      
   259      0.920248   6 C  d -1            289     -0.747950   7 H  pz        
   381      0.694112  11 H  pz               31      0.636596   1 C  d  1      
    60     -0.336069   2 C  pz              244      0.335914   6 C  pz        
 
 Vector   70  Occ=0.000000D+00  E= 3.284685D-01
              MO Center=  4.4D-02, -6.2D-01,  8.2D-05, r^2= 1.5D+01
   Bfn.  Coefficient  Atom+Function         Bfn.  Coefficient  Atom+Function  
  ----- ------------  ---------------      ----- ------------  ---------------
   142     12.145482   4 C  s               188      8.741172   5 C  s         
    96      8.697360   3 C  s               151     -6.832023   4 C  py        
   325     -5.846631   9 H  s                 4     -5.238837   1 C  s         
   334     -5.008614   9 H  py                5      4.906824   1 C  s         
   348     -4.409433  10 H  s               302     -4.369324   8 H  s         
 
 Vector   71  Occ=0.000000D+00  E= 3.347618D-01
              MO Center= -1.3D-03,  2.5D-02,  1.9D-04, r^2= 7.7D+00
   Bfn.  Coefficient  Atom+Function         Bfn.  Coefficient  Atom+Function  
  ----- ------------  ---------------      ----- ------------  ---------------
   289      2.028839   7 H  pz              381      2.030740  11 H  pz        
   335      1.839580   9 H  pz               14     -1.773105   1 C  pz        
   155     -1.703004   4 C  pz               63     -1.546091   2 C  pz        
   247     -1.544207   6 C  pz               77     -1.510342   2 C  d  1      
   261      1.414355   6 C  d  1            106     -1.287623   3 C  pz        
 
 Vector   72  Occ=0.000000D+00  E= 3.433168D-01
              MO Center=  9.3D-03, -3.9D-01, -4.4D-03, r^2= 1.2D+01
   Bfn.  Coefficient  Atom+Function         Bfn.  Coefficient  Atom+Function  
  ----- ------------  ---------------      ----- ------------  ---------------
   169      3.298444   4 C  d  1             31      2.701771   1 C  d  1      
   312     -2.502576   8 H  pz              358      2.459279  10 H  pz        
   123      2.236532   3 C  d  1            215      2.094696   5 C  d  1      
   106     -1.832536   3 C  pz              198      1.762870   5 C  pz        
   289     -1.436462   7 H  pz              381      1.418986  11 H  pz        
 
 Vector   73  Occ=0.000000D+00  E= 3.449198D-01
              MO Center= -3.9D-02,  5.6D-01, -2.1D-03, r^2= 1.2D+01
   Bfn.  Coefficient  Atom+Function         Bfn.  Coefficient  Atom+Function  
  ----- ------------  ---------------      ----- ------------  ---------------
   143     23.705924   4 C  s               325    -13.018213   9 H  s         
   279     11.960841   7 H  s                51    -11.877946   2 C  s         
   371     11.847221  11 H  s               235    -11.652351   6 C  s         
     5     -7.676476   1 C  s               197     -6.877950   5 C  py        
   105     -6.821551   3 C  py              243     -5.988066   6 C  py        
 
 Vector   74  Occ=0.000000D+00  E= 3.478145D-01
              MO Center=  2.4D-02, -1.5D-01,  4.0D-03, r^2= 1.2D+01
   Bfn.  Coefficient  Atom+Function         Bfn.  Coefficient  Atom+Function  
  ----- ------------  ---------------      ----- ------------  ---------------
    51     21.582781   2 C  s               235    -20.748010   6 C  s         
   302    -12.043100   8 H  s               348     11.906332  10 H  s         
    97     11.068498   3 C  s               189    -10.807199   5 C  s         
   371     10.028073  11 H  s               279     -9.478138   7 H  s         
    12     -8.070439   1 C  px              150     -7.045754   4 C  px        
 
 Vector   75  Occ=0.000000D+00  E= 3.481679D-01
              MO Center=  4.9D-02, -5.2D-01,  3.2D-03, r^2= 1.3D+01
   Bfn.  Coefficient  Atom+Function         Bfn.  Coefficient  Atom+Function  
  ----- ------------  ---------------      ----- ------------  ---------------
   155     -3.971369   4 C  pz               17      3.781185   1 C  pz        
   109      3.563831   3 C  pz              201      3.559466   5 C  pz        
    63     -3.457701   2 C  pz              247     -3.445034   6 C  pz        
   152     -3.002397   4 C  pz              213     -2.326409   5 C  d -1      
   381      2.297377  11 H  pz              289      2.235161   7 H  pz        
 
 Vector   76  Occ=0.000000D+00  E= 3.527441D-01
              MO Center=  3.2D-02, -5.3D-01, -2.1D-04, r^2= 1.4D+01
   Bfn.  Coefficient  Atom+Function         Bfn.  Coefficient  Atom+Function  
  ----- ------------  ---------------      ----- ------------  ---------------
    17      6.393850   1 C  pz               63     -5.872603   2 C  pz        
   247     -5.851990   6 C  pz              109      5.139390   3 C  pz        
   201      5.118366   5 C  pz              155     -4.856162   4 C  pz        
   335      3.961020   9 H  pz               14      3.795893   1 C  pz        
   167      3.079757   4 C  d -1             60     -2.715092   2 C  pz        
 
 Vector   77  Occ=0.000000D+00  E= 3.546379D-01
              MO Center= -3.0D-02,  3.1D-01, -6.7D-04, r^2= 1.5D+01
   Bfn.  Coefficient  Atom+Function         Bfn.  Coefficient  Atom+Function  
  ----- ------------  ---------------      ----- ------------  ---------------
     5     31.343108   1 C  s               235    -16.198651   6 C  s         
   143     15.881730   4 C  s                51    -15.276991   2 C  s         
   151    -11.094419   4 C  py              196     -7.744985   5 C  px        
    50      7.590700   2 C  s               279     -7.310619   7 H  s         
    13      7.256078   1 C  py              234      7.178047   6 C  s         
 
 Vector   78  Occ=0.000000D+00  E= 3.599063D-01
              MO Center= -5.8D-02,  7.5D-01,  2.5D-04, r^2= 1.3D+01
   Bfn.  Coefficient  Atom+Function         Bfn.  Coefficient  Atom+Function  
  ----- ------------  ---------------      ----- ------------  ---------------
   289      3.411469   7 H  pz              381     -3.400997  11 H  pz        
   244     -3.209747   6 C  pz               60      3.105634   2 C  pz        
   121     -3.079281   3 C  d -1             77     -3.056443   2 C  d  1      
   259      3.030336   6 C  d -1            213      2.795460   5 C  d -1      
   198      2.768250   5 C  pz              312     -2.776572   8 H  pz        
 
 Vector   79  Occ=0.000000D+00  E= 3.685625D-01
              MO Center=  6.4D-02, -5.7D-01, -1.6D-04, r^2= 1.3D+01
   Bfn.  Coefficient  Atom+Function         Bfn.  Coefficient  Atom+Function  
  ----- ------------  ---------------      ----- ------------  ---------------
    96     10.730770   3 C  s               188     10.719324   5 C  s         
   196      8.515400   5 C  px              104     -8.463114   3 C  px        
   142     -7.535940   4 C  s                 5      7.237738   1 C  s         
   212      5.535606   5 C  d -2            258      5.385885   6 C  d -2      
   242     -5.236323   6 C  px              120     -5.101731   3 C  d -2      
 
 Vector   80  Occ=0.000000D+00  E= 3.721052D-01
              MO Center= -8.3D-03, -3.1D-01, -2.1D-04, r^2= 1.3D+01
   Bfn.  Coefficient  Atom+Function         Bfn.  Coefficient  Atom+Function  
  ----- ------------  ---------------      ----- ------------  ---------------
    97      9.855355   3 C  s               189     -9.814183   5 C  s         
   234     -9.081378   6 C  s                50      8.970455   2 C  s         
   371      5.543780  11 H  s               279     -5.416256   7 H  s         
   311     -5.258926   8 H  py              357      5.115538  10 H  py        
   235      4.826376   6 C  s                51     -4.774626   2 C  s         
 
 Vector   81  Occ=0.000000D+00  E= 3.819120D-01
              MO Center=  4.3D-02, -5.7D-01, -3.3D-06, r^2= 1.6D+01
   Bfn.  Coefficient  Atom+Function         Bfn.  Coefficient  Atom+Function  
  ----- ------------  ---------------      ----- ------------  ---------------
   166      9.085513   4 C  d -2            333      7.117724   9 H  px        
   150     -6.660757   4 C  px              216     -6.546300   5 C  d  2      
   124      6.119816   3 C  d  2            279      5.873495   7 H  s         
   371     -5.864276  11 H  s               310      5.083963   8 H  px        
   356      5.022698  10 H  px               96     -4.902010   3 C  s         
 
 Vector   82  Occ=0.000000D+00  E= 3.932651D-01
              MO Center= -2.1D-02,  4.6D-01,  1.9D-04, r^2= 1.5D+01
   Bfn.  Coefficient  Atom+Function         Bfn.  Coefficient  Atom+Function  
  ----- ------------  ---------------      ----- ------------  ---------------
    12     12.174544   1 C  px              235     11.117564   6 C  s         
    51    -10.975112   2 C  s                78     -8.973509   2 C  d  2      
   262      8.889671   6 C  d  2             15     -6.827065   1 C  px        
   216      6.645758   5 C  d  2            124     -5.889741   3 C  d  2      
   153     -5.858145   4 C  px              379     -5.821252  11 H  px        
 
 Vector   83  Occ=0.000000D+00  E= 3.960288D-01
              MO Center= -5.5D-02,  8.3D-01,  2.2D-04, r^2= 1.2D+01
   Bfn.  Coefficient  Atom+Function         Bfn.  Coefficient  Atom+Function  
  ----- ------------  ---------------      ----- ------------  ---------------
   152     -7.531245   4 C  pz              106      7.345385   3 C  pz        
   198      7.327255   5 C  pz               60     -6.478740   2 C  pz        
   244     -6.481199   6 C  pz              167     -6.334158   4 C  d -1      
   215      5.118258   5 C  d  1            123     -4.711828   3 C  d  1      
    14      4.573084   1 C  pz              259      4.011243   6 C  d -1      
 
 Vector   84  Occ=0.000000D+00  E= 4.017344D-01
              MO Center= -3.1D-02,  5.2D-01, -7.2D-04, r^2= 1.5D+01
   Bfn.  Coefficient  Atom+Function         Bfn.  Coefficient  Atom+Function  
  ----- ------------  ---------------      ----- ------------  ---------------
     5     51.743272   1 C  s               235    -19.916408   6 C  s         
    51    -19.644958   2 C  s               189    -17.594047   5 C  s         
    97    -17.180833   3 C  s               143     11.667273   4 C  s         
   142    -10.271834   4 C  s                 4     -9.671850   1 C  s         
    50     -8.017490   2 C  s               234     -7.863430   6 C  s         
 
 Vector   85  Occ=0.000000D+00  E= 4.053091D-01
              MO Center= -2.0D-02,  8.5D-02, -7.2D-05, r^2= 1.3D+01
   Bfn.  Coefficient  Atom+Function         Bfn.  Coefficient  Atom+Function  
  ----- ------------  ---------------      ----- ------------  ---------------
[...]
     Occ.   15 beta  a   ---  Virt.   21 beta  a    0.10229 X
     Occ.   19 beta  a   ---  Virt.   24 beta  a    0.22068 X
     Occ.   20 beta  a   ---  Virt.   22 beta  a   -0.14445 X
  ----------------------------------------------------------------------------
  Root  27         a              0.251971756 a.u.                6.8565 eV 
  <S2> =   1.6626
  ----------------------------------------------------------------------------
     Transition Moments    X -0.00001   Y -0.00000   Z -0.24459
     Transition Moments   XX -0.00005  XY  0.00006  XZ -0.01500
     Transition Moments   YY -0.00013  YZ -0.16838  ZZ -0.00003
     Dipole Oscillator Strength                    0.0100495307
     Electric Quadrupole                           0.0000000024
     Magnetic Dipole                               0.0000000310
     Total Oscillator Strength                     0.0100495641
 
     Occ.   19 alpha a   ---  Virt.   26 alpha a   -0.97506 X
     Occ.   19 alpha a   ---  Virt.   35 alpha a    0.07064 X
     Occ.   19 alpha a   ---  Virt.   36 alpha a    0.07311 X
     Occ.   20 alpha a   ---  Virt.   25 alpha a   -0.11516 X
     Occ.   20 alpha a   ---  Virt.   26 alpha a    0.11855 X
     Occ.   20 beta  a   ---  Virt.   26 beta  a   -0.05031 X
  ----------------------------------------------------------------------------
  Root  28         a              0.252624955 a.u.                6.8743 eV 
  <S2> =   1.8888
  ----------------------------------------------------------------------------
     Transition Moments    X  0.00003   Y  0.00001   Z -0.01460
     Transition Moments   XX  0.00000  XY -0.00001  XZ  0.39277
     Transition Moments   YY  0.00006  YZ  0.01440  ZZ  0.00002
     Dipole Oscillator Strength                    0.0000359019
     Electric Quadrupole                           0.0000000133
     Magnetic Dipole                               0.0000000097
     Total Oscillator Strength                     0.0000359248
 
     Occ.   19 alpha a   ---  Virt.   25 alpha a   -0.24694 X
     Occ.   19 alpha a   ---  Virt.   26 alpha a   -0.11841 X
     Occ.   20 alpha a   ---  Virt.   26 alpha a   -0.95311 X
     Occ.   20 alpha a   ---  Virt.   35 alpha a    0.06103 X
     Occ.   20 alpha a   ---  Virt.   36 alpha a    0.06495 X
     Occ.   19 beta  a   ---  Virt.   26 beta  a    0.06484 X
  ----------------------------------------------------------------------------
  Root  29         a              0.253988727 a.u.                6.9114 eV 
  <S2> =   1.6184
  ----------------------------------------------------------------------------
     Transition Moments    X -0.00006   Y  0.00002   Z -0.00070
     Transition Moments   XX  0.00003  XY -0.00004  XZ  0.49373
     Transition Moments   YY  0.00011  YZ  0.03114  ZZ  0.00003
     Dipole Oscillator Strength                    0.0000000846
     Electric Quadrupole                           0.0000000214
     Magnetic Dipole                               0.0000000109
     Total Oscillator Strength                     0.0000001169
 
     Occ.   20 alpha a   ---  Virt.   26 alpha a   -0.06925 X
     Occ.   19 beta  a   ---  Virt.   26 beta  a   -0.98515 X
     Occ.   19 beta  a   ---  Virt.   35 beta  a    0.05783 X
     Occ.   19 beta  a   ---  Virt.   36 beta  a    0.07402 X
     Occ.   20 beta  a   ---  Virt.   25 beta  a   -0.09685 X
  ----------------------------------------------------------------------------
  Root  30         a              0.254757576 a.u.                6.9323 eV 
  <S2> =   0.7707
  ----------------------------------------------------------------------------
     Transition Moments    X -1.50416   Y -0.08426   Z  0.00002
     Transition Moments   XX -0.01787  XY  0.18926  XZ -0.00004
     Transition Moments   YY  0.03476  YZ  0.00002  ZZ  0.00027
     Dipole Oscillator Strength                    0.3854667087
     Electric Quadrupole                           0.0000000032
     Magnetic Dipole                               0.0000000194
     Total Oscillator Strength                     0.3854667313
 
     Occ.   19 alpha a   ---  Virt.   22 alpha a   -0.37953 X
     Occ.   19 alpha a   ---  Virt.   22 alpha a    0.05303 Y
     Occ.   20 alpha a   ---  Virt.   23 alpha a    0.42614 X
     Occ.   20 alpha a   ---  Virt.   23 alpha a   -0.05101 Y
     Occ.   20 alpha a   ---  Virt.   29 alpha a   -0.14061 X
     Occ.   21 alpha a   ---  Virt.   25 alpha a    0.07638 X
     Occ.   21 alpha a   ---  Virt.   27 alpha a   -0.38922 X
     Occ.   13 beta  a   ---  Virt.   21 beta  a    0.12613 X
     Occ.   15 beta  a   ---  Virt.   21 beta  a    0.27047 X
     Occ.   19 beta  a   ---  Virt.   24 beta  a    0.49870 X
     Occ.   19 beta  a   ---  Virt.   29 beta  a   -0.13916 X
     Occ.   20 beta  a   ---  Virt.   22 beta  a   -0.34842 X
     Occ.   20 beta  a   ---  Virt.   22 beta  a    0.05612 Y
  ----------------------------------------------------------------------------
  Root  31         a              0.255403880 a.u.                6.9499 eV 
  <S2> =   0.8012
  ----------------------------------------------------------------------------
     Transition Moments    X -0.03199   Y  0.63669   Z  0.00000
     Transition Moments   XX  0.65066  XY -0.08091  XZ -0.00002
     Transition Moments   YY  1.88538  YZ  0.00003  ZZ  0.14662
     Dipole Oscillator Strength                    0.0691979601
     Electric Quadrupole                           0.0000000716
     Magnetic Dipole                               0.0000000000
     Total Oscillator Strength                     0.0691980317
 
     Occ.   19 alpha a   ---  Virt.   23 alpha a   -0.10536 X
     Occ.   20 alpha a   ---  Virt.   22 alpha a   -0.11449 X
     Occ.   21 alpha a   ---  Virt.   26 alpha a   -0.18449 X
     Occ.   21 alpha a   ---  Virt.   28 alpha a    0.90986 X
     Occ.   21 alpha a   ---  Virt.   30 alpha a    0.12846 X
     Occ.   21 alpha a   ---  Virt.   31 alpha a    0.16280 X
     Occ.   21 alpha a   ---  Virt.   48 alpha a   -0.05657 X
     Occ.   16 beta  a   ---  Virt.   21 beta  a   -0.18854 X
     Occ.   19 beta  a   ---  Virt.   22 beta  a   -0.10928 X
     Occ.   20 beta  a   ---  Virt.   24 beta  a   -0.09632 X
  ----------------------------------------------------------------------------
  Root  32         a              0.260750607 a.u.                7.0954 eV 
  <S2> =   0.8001
  ----------------------------------------------------------------------------
     Transition Moments    X  0.00001   Y -0.00001   Z  0.09559
     Transition Moments   XX -0.00001  XY -0.00001  XZ -0.04253
     Transition Moments   YY -0.00003  YZ  0.70506  ZZ  0.00000
     Dipole Oscillator Strength                    0.0015883466
     Electric Quadrupole                           0.0000000471
     Magnetic Dipole                               0.0000000330
     Total Oscillator Strength                     0.0015884266
 
     Occ.   21 alpha a   ---  Virt.   29 alpha a   -0.97947 X
     Occ.   21 alpha a   ---  Virt.   33 alpha a   -0.17996 X
  ----------------------------------------------------------------------------
  Root  33         a              0.265401265 a.u.                7.2219 eV 
  <S2> =   1.7807
  ----------------------------------------------------------------------------
     Transition Moments    X  0.00001   Y  0.00001   Z -0.00030
     Transition Moments   XX -0.00006  XY  0.00002  XZ  0.54558
     Transition Moments   YY -0.00003  YZ  0.03801  ZZ -0.00004
     Dipole Oscillator Strength                    0.0000000162
     Electric Quadrupole                           0.0000000298
     Magnetic Dipole                               0.0000000006
     Total Oscillator Strength                     0.0000000465
 
     Occ.   20 beta  a   ---  Virt.   27 beta  a    0.99103 X
     Occ.   20 beta  a   ---  Virt.   38 beta  a   -0.09649 X
  ----------------------------------------------------------------------------
  Root  34         a              0.267190328 a.u.                7.2706 eV 
  <S2> =   0.8216
  ----------------------------------------------------------------------------
     Transition Moments    X -0.07235   Y  1.20078   Z -0.00000
     Transition Moments   XX -0.01893  XY  0.04595  XZ -0.00001
     Transition Moments   YY -0.69460  YZ -0.00006  ZZ -0.04589
     Dipole Oscillator Strength                    0.2577695048
     Electric Quadrupole                           0.0000000151
     Magnetic Dipole                               0.0000000000
     Total Oscillator Strength                     0.2577695199
 
     Occ.   17 alpha a   ---  Virt.   23 alpha a    0.08605 X
     Occ.   19 alpha a   ---  Virt.   23 alpha a   -0.30451 X
     Occ.   19 alpha a   ---  Virt.   29 alpha a   -0.16131 X
     Occ.   20 alpha a   ---  Virt.   22 alpha a   -0.22232 X
     Occ.   21 alpha a   ---  Virt.   28 alpha a   -0.30110 X
     Occ.   21 alpha a   ---  Virt.   30 alpha a    0.42799 X
     Occ.   21 alpha a   ---  Virt.   31 alpha a   -0.08032 X
     Occ.   14 beta  a   ---  Virt.   21 beta  a    0.08691 X
     Occ.   16 beta  a   ---  Virt.   21 beta  a   -0.50149 X
     Occ.   19 beta  a   ---  Virt.   22 beta  a   -0.22346 X
     Occ.   20 beta  a   ---  Virt.   24 beta  a   -0.30735 X
     Occ.   20 beta  a   ---  Virt.   29 beta  a   -0.34419 X
  ----------------------------------------------------------------------------
  Root  35         a              0.270809356 a.u.                7.3691 eV 
  <S2> =   2.7039
  ----------------------------------------------------------------------------
     Transition Moments    X  0.00000   Y  0.00001   Z  0.00954
     Transition Moments   XX -0.00001  XY  0.00001  XZ  0.00305
     Transition Moments   YY -0.00002  YZ  0.15297  ZZ  0.00000
     Dipole Oscillator Strength                    0.0000164470
     Electric Quadrupole                           0.0000000025
     Magnetic Dipole                               0.0000000000
     Total Oscillator Strength                     0.0000164495
 
     Occ.   20 alpha a   ---  Virt.   27 alpha a   -0.79690 X
     Occ.   20 alpha a   ---  Virt.   38 alpha a    0.08792 X
     Occ.   19 beta  a   ---  Virt.   27 beta  a    0.57641 X
     Occ.   19 beta  a   ---  Virt.   38 beta  a   -0.06817 X
     Occ.   20 beta  a   ---  Virt.   28 beta  a    0.05381 X
     Occ.   20 beta  a   ---  Virt.   30 beta  a    0.06114 X
  ----------------------------------------------------------------------------
  Root  36         a              0.271254563 a.u.                7.3812 eV 
  <S2> =   2.7408
  ----------------------------------------------------------------------------
     Transition Moments    X  0.04853   Y  0.00536   Z -0.00000
     Transition Moments   XX  0.00047  XY -0.02879  XZ  0.00001
     Transition Moments   YY -0.00224  YZ -0.00004  ZZ -0.00024
     Dipole Oscillator Strength                    0.0004311269
     Electric Quadrupole                           0.0000000001
     Magnetic Dipole                               0.0000000018
     Total Oscillator Strength                     0.0004311288
 
     Occ.   17 alpha a   ---  Virt.   22 alpha a    0.59777 X
     Occ.   17 alpha a   ---  Virt.   41 alpha a   -0.05239 X
     Occ.   19 alpha a   ---  Virt.   32 alpha a   -0.08367 X
     Occ.   20 alpha a   ---  Virt.   29 alpha a    0.16433 X
     Occ.   20 alpha a   ---  Virt.   44 alpha a   -0.22698 X
     Occ.   20 alpha a   ---  Virt.   47 alpha a    0.17384 X
     Occ.   17 beta  a   ---  Virt.   22 beta  a   -0.64452 X
     Occ.   17 beta  a   ---  Virt.   41 beta  a    0.05432 X
     Occ.   19 beta  a   ---  Virt.   29 beta  a   -0.10210 X
     Occ.   19 beta  a   ---  Virt.   44 beta  a    0.20059 X
     Occ.   19 beta  a   ---  Virt.   47 beta  a   -0.16659 X
     Occ.   20 beta  a   ---  Virt.   31 beta  a    0.10177 X
  ----------------------------------------------------------------------------
  Root  37         a              0.271754401 a.u.                7.3948 eV 
  <S2> =   1.0515
  ----------------------------------------------------------------------------
     Transition Moments    X -0.03025   Y  0.51306   Z  0.00000
     Transition Moments   XX -1.05252  XY -0.11336  XZ  0.00000
     Transition Moments   YY  0.75561  YZ  0.00005  ZZ -0.23977
     Dipole Oscillator Strength                    0.0478558348
     Electric Quadrupole                           0.0000000890
     Magnetic Dipole                               0.0000000000
     Total Oscillator Strength                     0.0478559238
 
     Occ.   17 alpha a   ---  Virt.   23 alpha a    0.06256 X
     Occ.   19 alpha a   ---  Virt.   23 alpha a   -0.09113 X
     Occ.   21 alpha a   ---  Virt.   30 alpha a   -0.79733 X
     Occ.   21 alpha a   ---  Virt.   31 alpha a    0.20554 X
     Occ.   21 alpha a   ---  Virt.   35 alpha a   -0.07439 X
     Occ.   21 alpha a   ---  Virt.   40 alpha a    0.05669 X
     Occ.   14 beta  a   ---  Virt.   21 beta  a    0.06237 X
     Occ.   16 beta  a   ---  Virt.   21 beta  a   -0.18881 X
     Occ.   19 beta  a   ---  Virt.   22 beta  a   -0.05859 X
     Occ.   20 beta  a   ---  Virt.   24 beta  a   -0.09607 X
     Occ.   20 beta  a   ---  Virt.   29 beta  a   -0.48457 X
  ----------------------------------------------------------------------------
  Root  38         a              0.271807733 a.u.                7.3963 eV 
  <S2> =   0.8325
  ----------------------------------------------------------------------------
     Transition Moments    X -0.00001   Y  0.00007   Z -0.02481
     Transition Moments   XX -0.00014  XY -0.00007  XZ  0.02754
     Transition Moments   YY  0.00017  YZ -0.87316  ZZ -0.00005
     Dipole Oscillator Strength                    0.0001115650
     Electric Quadrupole                           0.0000000816
     Magnetic Dipole                               0.0000000038
     Total Oscillator Strength                     0.0001116504
 
     Occ.   20 alpha a   ---  Virt.   27 alpha a    0.57372 X
     Occ.   19 beta  a   ---  Virt.   27 beta  a    0.80048 X
     Occ.   19 beta  a   ---  Virt.   38 beta  a   -0.07512 X
     Occ.   20 beta  a   ---  Virt.   28 beta  a   -0.12793 X
  ----------------------------------------------------------------------------
  Root  39         a              0.272287568 a.u.                7.4093 eV 
  <S2> =   1.7239
  ----------------------------------------------------------------------------
     Transition Moments    X -0.00001   Y  0.00000   Z  0.00219
     Transition Moments   XX  0.00006  XY -0.00002  XZ -0.55113
     Transition Moments   YY  0.00001  YZ  0.01195  ZZ  0.00003
     Dipole Oscillator Strength                    0.0000008676
     Electric Quadrupole                           0.0000000327
     Magnetic Dipole                               0.0000000013
     Total Oscillator Strength                     0.0000009016
 
     Occ.   19 alpha a   ---  Virt.   27 alpha a   -0.98975 X
     Occ.   19 alpha a   ---  Virt.   38 alpha a    0.09587 X
  ----------------------------------------------------------------------------
  Root  40         a              0.272510394 a.u.                7.4154 eV 
  <S2> =   1.9618
  ----------------------------------------------------------------------------
     Transition Moments    X -0.00001   Y  0.00003   Z  0.04146
     Transition Moments   XX  0.00003  XY  0.00003  XZ -0.02389
     Transition Moments   YY  0.00005  YZ  0.44014  ZZ  0.00001
     Dipole Oscillator Strength                    0.0003123169
     Electric Quadrupole                           0.0000000209
     Magnetic Dipole                               0.0000000053
     Total Oscillator Strength                     0.0003123431
 
     Occ.   19 alpha a   ---  Virt.   28 alpha a   -0.11681 X
     Occ.   20 alpha a   ---  Virt.   27 alpha a    0.12612 X
     Occ.   17 beta  a   ---  Virt.   21 beta  a   -0.05506 X
     Occ.   19 beta  a   ---  Virt.   27 beta  a    0.06778 X
     Occ.   20 beta  a   ---  Virt.   28 beta  a    0.96945 X
     Occ.   20 beta  a   ---  Virt.   30 beta  a    0.05587 X
     Occ.   20 beta  a   ---  Virt.   32 beta  a    0.07459 X
     Occ.   20 beta  a   ---  Virt.   43 beta  a    0.08099 X
 
              Target root =      1
          Target symmetry = none
      Ground state energy =   -231.646319760225
        Excitation energy =      0.106296650021
     Excited state energy =   -231.540023110204
 
  stored tddft:energy   -231.540023110204     

 Task  times  cpu:     2918.0s     wall:     3006.4s
 
 
                                NWChem Input Module
                                -------------------
 
 
 Summary of allocated global arrays
-----------------------------------
  No active global arrays



                         GA Statistics for process    0
                         ------------------------------

       create   destroy   get      put      acc     scatter   gather  read&inc
calls: 9523     9523     8.68e+06 4.03e+06 1.32e+06 5640        0      291     
number of processes/call 1.37e+00 1.75e+00 1.87e+00 0.00e+00 0.00e+00
bytes total:             7.74e+10 1.09e+10 8.56e+10 6.26e+04 0.00e+00 2.33e+03
bytes remote:            5.63e+10 1.10e+09 8.17e+10 0.00e+00 0.00e+00 0.00e+00
Max memory consumed for GA by this process: 205086464 bytes
 
MA_summarize_allocated_blocks: starting scan ...
MA_summarize_allocated_blocks: scan completed: 0 heap blocks, 0 stack blocks
MA usage statistics:

	allocation statistics:
					      heap	     stack
					      ----	     -----
	current number of blocks	         0	         0
	maximum number of blocks	        20	        52
	current total bytes		         0	         0
	maximum total bytes		   1165984	  68276424
	maximum total K-bytes		      1166	     68277
	maximum total M-bytes		         2	        69
 
 
                                     CITATION
                                     --------
                Please cite the following reference when publishing
                           results obtained with NWChem:
 
                 M. Valiev, E.J. Bylaska, N. Govind, K. Kowalski,
              T.P. Straatsma, H.J.J. van Dam, D. Wang, J. Nieplocha,
                        E. Apra, T.L. Windus, W.A. de Jong
                 "NWChem: a comprehensive and scalable open-source
                  solution for large scale molecular simulations"
                      Comput. Phys. Commun. 181, 1477 (2010)
                           doi:10.1016/j.cpc.2010.04.018
 
                                      AUTHORS
                                      -------
          E. Apra, E. J. Bylaska, W. A. de Jong, N. Govind, K. Kowalski,
       T. P. Straatsma, M. Valiev, H. J. J. van Dam, D. Wang, T. L. Windus,
        J. Hammond, J. Autschbach, K. Bhaskaran-Nair, J. Brabec, K. Lopata,
    S. A. Fischer, S. Krishnamoorthy, M. Jacquelin, W. Ma, M. Klemm, O. Villa,
      Y. Chen, V. Anisimov, F. Aquino, S. Hirata, M. T. Hackler, V. Konjkov,
            D. Mejia-Rodriguez, T. Risthaus, M. Malagoli, A. Marenich,
   A. Otero-de-la-Roza, J. Mullin, P. Nichols, R. Peverati, J. Pittner, Y. Zhao,
        P.-D. Fan, A. Fonari, M. J. Williamson, R. J. Harrison, J. R. Rehr,
      M. Dupuis, D. Silverstein, D. M. A. Smith, J. Nieplocha, V. Tipparaju,
    M. Krishnan, B. E. Van Kuiken, A. Vazquez-Mayagoitia, L. Jensen, M. Swart,
      Q. Wu, T. Van Voorhis, A. A. Auer, M. Nooijen, L. D. Crosby, E. Brown,
      G. Cisneros, G. I. Fann, H. Fruchtl, J. Garza, K. Hirao, R. A. Kendall,
      J. A. Nichols, K. Tsemekhman, K. Wolinski, J. Anchell, D. E. Bernholdt,
      P. Borowski, T. Clark, D. Clerc, H. Dachsel, M. J. O. Deegan, K. Dyall,
    D. Elwood, E. Glendening, M. Gutowski, A. C. Hess, J. Jaffe, B. G. Johnson,
     J. Ju, R. Kobayashi, R. Kutteh, Z. Lin, R. Littlefield, X. Long, B. Meng,
      T. Nakajima, S. Niu, L. Pollack, M. Rosing, K. Glaesemann, G. Sandrone,
      M. Stave, H. Taylor, G. Thomas, J. H. van Lenthe, A. T. Wong, Z. Zhang.

 Total times  cpu:     2918.1s     wall:     3007.4s
