 argument  1 = /storage/home/j/jbb5516/normalModes/mode720.47-p.nw
 


============================== echo of input deck ==============================
echo
start

title "None"

geometry
C    -0.08747224    1.38830409    0.00051615
C    -1.26735482    0.69112092   -0.00045785
C    -1.16733630   -0.70470852   -0.00004111
C     0.08291598   -1.31598916   -0.00046521
C     1.24655610   -0.55261762   -0.00004110
C     1.17058620    0.84472727   -0.00045785
H    -2.23189055    1.18090100    0.00159874
H    -2.06748412   -1.30603725    0.00288989
H     0.15092404   -2.39537432    0.00229763
H     2.21506130   -1.03620839    0.00289016
H     2.06601969    1.45169726    0.00159874
symmetry c1
end

basis spherical
 * library "aug-cc-pvtz"
end

dft
 direct
 mult 2
 iterations 500
 xc b3lyp
end

tddft
 nroots 40
 notriplet
 algorithm 1
end
task tddft energy
================================================================================


                                         
                                         
 
 
              Northwest Computational Chemistry Package (NWChem) 6.8
              ------------------------------------------------------
 
 
                    Environmental Molecular Sciences Laboratory
                       Pacific Northwest National Laboratory
                                Richland, WA 99352
 
                              Copyright (c) 1994-2017
                       Pacific Northwest National Laboratory
                            Battelle Memorial Institute
 
             NWChem is an open-source computational chemistry package
                        distributed under the terms of the
                      Educational Community License (ECL) 2.0
             A copy of the license is included with this distribution
                              in the LICENSE.TXT file
 
                                  ACKNOWLEDGMENT
                                  --------------

            This software and its documentation were developed at the
            EMSL at Pacific Northwest National Laboratory, a multiprogram
            national laboratory, operated for the U.S. Department of Energy
            by Battelle under Contract Number DE-AC05-76RL01830. Support
            for this work was provided by the Department of Energy Office
            of Biological and Environmental Research, Office of Basic
            Energy Sciences, and the Office of Advanced Scientific Computing.


           Job information
           ---------------

    hostname        = comp-sc-0367.acib.production.int.aci.ics.psu.edu
    program         = /gpfs/group/lxj18/default/jeffprograms/nwchem-6.8.1/bin/LINUX64/nwchem
    date            = Sun Sep 20 20:03:27 2020

    compiled        = Wed_Oct_03_14:08:39_2018
    source          = /gpfs/group/lxj18/default/jeffprograms/nwchem-6.8.1
    nwchem branch   = 6.8.1
    nwchem revision = v6.8-143-gdb0d964
    ga revision     = 5.6.5
    use scalapack   = F
    input           = /storage/home/j/jbb5516/normalModes/mode720.47-p.nw
    prefix          = mode720.47-p.
    data base       = ./mode720.47-p.db
    status          = startup
    nproc           =       20
    time left       =     -1s



           Memory information
           ------------------

    heap     =   13107198 doubles =    100.0 Mbytes
    stack    =   13107195 doubles =    100.0 Mbytes
    global   =   26214400 doubles =    200.0 Mbytes (distinct from heap & stack)
    total    =   52428793 doubles =    400.0 Mbytes
    verify   = yes
    hardfail = no 


           Directory information
           ---------------------
 
  0 permanent = .
  0 scratch   = .
 
 
 
 
                                NWChem Input Module
                                -------------------
 
 
                                       None
                                       ----

 Scaling coordinates for geometry "geometry" by  1.889725989
 (inverse scale =  0.529177249)

 Turning off AUTOSYM since
 SYMMETRY directive was detected!
 

          ------
          auto-z
          ------
 
 
                             Geometry "geometry" -> ""
                             -------------------------
 
 Output coordinates in angstroms (scale by  1.889725989 to convert to a.u.)
 
  No.       Tag          Charge          X              Y              Z
 ---- ---------------- ---------- -------------- -------------- --------------
    1 C                    6.0000    -0.08747224     1.38830409     0.00037973
    2 C                    6.0000    -1.26735482     0.69112092    -0.00059427
    3 C                    6.0000    -1.16733630    -0.70470852    -0.00017753
    4 C                    6.0000     0.08291598    -1.31598916    -0.00060163
    5 C                    6.0000     1.24655610    -0.55261762    -0.00017752
    6 C                    6.0000     1.17058620     0.84472727    -0.00059427
    7 H                    1.0000    -2.23189055     1.18090100     0.00146232
    8 H                    1.0000    -2.06748412    -1.30603725     0.00275347
    9 H                    1.0000     0.15092404    -2.39537432     0.00216121
   10 H                    1.0000     2.21506130    -1.03620839     0.00275374
   11 H                    1.0000     2.06601969     1.45169726     0.00146232
 
      Atomic Mass 
      ----------- 
 
      C                 12.000000
      H                  1.007825
 

 Effective nuclear repulsion energy (a.u.)     195.0639471399

            Nuclear Dipole moment (a.u.) 
            ----------------------------
        X                 Y               Z
 ---------------- ---------------- ----------------
    -0.0000000000     0.0000000000    -0.0000000000
 


                                Z-matrix (autoz)
                                -------- 

 Units are Angstrom for bonds and degrees for angles
 
      Type          Name      I     J     K     L     M      Value
      ----------- --------  ----- ----- ----- ----- ----- ----------
    1 Stretch                  1     2                       1.37047
    2 Stretch                  1     6                       1.37047
    3 Stretch                  2     3                       1.39941
    4 Stretch                  2     7                       1.08177
    5 Stretch                  3     4                       1.39169
    6 Stretch                  3     8                       1.08253
    7 Stretch                  4     5                       1.39169
    8 Stretch                  4     9                       1.08153
    9 Stretch                  5     6                       1.39941
   10 Stretch                  5    10                       1.08253
   11 Stretch                  6    11                       1.08177
   12 Bend                     1     2     3               116.47994
   13 Bend                     1     2     7               122.50040
   14 Bend                     1     6     5               116.47994
   15 Bend                     1     6    11               122.50042
   16 Bend                     2     1     6               126.05343
   17 Bend                     2     3     4               120.15373
   18 Bend                     2     3     8               119.64564
   19 Bend                     3     2     7               121.01937
   20 Bend                     3     4     5               120.67910
   21 Bend                     3     4     9               119.66027
   22 Bend                     4     3     8               120.20048
   23 Bend                     4     5     6               120.15372
   24 Bend                     4     5    10               120.20052
   25 Bend                     5     4     9               119.66030
   26 Bend                     5     6    11               121.01934
   27 Bend                     6     5    10               119.64561
   28 Torsion                  1     2     3     4          -0.08410
   29 Torsion                  1     2     3     8         179.77722
   30 Torsion                  1     6     5     4           0.08410
   31 Torsion                  1     6     5    10        -179.77721
   32 Torsion                  2     1     6     5          -0.11936
   33 Torsion                  2     1     6    11        -179.92491
   34 Torsion                  2     3     4     5           0.06054
   35 Torsion                  2     3     4     9         179.85150
   36 Torsion                  3     2     1     6           0.11936
   37 Torsion                  3     4     5     6          -0.06054
   38 Torsion                  3     4     5    10         179.79999
   39 Torsion                  4     3     2     7        -179.89274
   40 Torsion                  4     5     6    11         179.89274
   41 Torsion                  5     4     3     8        -179.80001
   42 Torsion                  6     1     2     7         179.92491
   43 Torsion                  6     5     4     9        -179.85150
   44 Torsion                  7     2     3     8          -0.03142
   45 Torsion                  8     3     4     9          -0.00905
   46 Torsion                  9     4     5    10           0.00903
   47 Torsion                 10     5     6    11           0.03144
 
 
            XYZ format geometry
            -------------------
    11
 geometry
 C                    -0.08747224     1.38830409     0.00037973
 C                    -1.26735482     0.69112092    -0.00059427
 C                    -1.16733630    -0.70470852    -0.00017753
 C                     0.08291598    -1.31598916    -0.00060163
 C                     1.24655610    -0.55261762    -0.00017752
 C                     1.17058620     0.84472727    -0.00059427
 H                    -2.23189055     1.18090100     0.00146232
 H                    -2.06748412    -1.30603725     0.00275347
 H                     0.15092404    -2.39537432     0.00216121
 H                     2.21506130    -1.03620839     0.00275374
 H                     2.06601969     1.45169726     0.00146232
 
 ==============================================================================
                                internuclear distances
 ------------------------------------------------------------------------------
       center one      |      center two      | atomic units |  angstroms
 ------------------------------------------------------------------------------
    2 C                |   1 C                |     2.58981  |     1.37047
    3 C                |   2 C                |     2.64450  |     1.39941
    4 C                |   3 C                |     2.62991  |     1.39169
    5 C                |   4 C                |     2.62991  |     1.39169
    6 C                |   1 C                |     2.58981  |     1.37047
    6 C                |   5 C                |     2.64450  |     1.39941
    7 H                |   2 C                |     2.04424  |     1.08177
    8 H                |   3 C                |     2.04568  |     1.08253
    9 H                |   4 C                |     2.04379  |     1.08153
   10 H                |   5 C                |     2.04568  |     1.08253
   11 H                |   6 C                |     2.04424  |     1.08177
 ------------------------------------------------------------------------------
                         number of included internuclear distances:         11
 ==============================================================================



 ==============================================================================
                                 internuclear angles
 ------------------------------------------------------------------------------
        center 1       |       center 2       |       center 3       |  degrees
 ------------------------------------------------------------------------------
    2 C                |   1 C                |   6 C                |   126.05
    1 C                |   2 C                |   3 C                |   116.48
    1 C                |   2 C                |   7 H                |   122.50
    3 C                |   2 C                |   7 H                |   121.02
    2 C                |   3 C                |   4 C                |   120.15
    2 C                |   3 C                |   8 H                |   119.65
    4 C                |   3 C                |   8 H                |   120.20
    3 C                |   4 C                |   5 C                |   120.68
    3 C                |   4 C                |   9 H                |   119.66
    5 C                |   4 C                |   9 H                |   119.66
    4 C                |   5 C                |   6 C                |   120.15
    4 C                |   5 C                |  10 H                |   120.20
    6 C                |   5 C                |  10 H                |   119.65
    1 C                |   6 C                |   5 C                |   116.48
    1 C                |   6 C                |  11 H                |   122.50
    5 C                |   6 C                |  11 H                |   121.02
 ------------------------------------------------------------------------------
                            number of included internuclear angles:         16
 ==============================================================================





 Summary of "ao basis" -> "" (spherical)
 ------------------------------------------------------------------------------
       Tag                 Description            Shells   Functions and Types
 ---------------- ------------------------------  ------  ---------------------
 *                        aug-cc-pvtz                 on all atoms 


 
                                 NWChem DFT Module
                                 -----------------
 
 
                                       None
 
 
                      Basis "ao basis" -> "ao basis" (spherical)
                      -----
  C (Carbon)
  ----------
            Exponent  Coefficients 
       -------------- ---------------------------------------------------------
  1 S  8.23600000E+03  0.000531
  1 S  1.23500000E+03  0.004108
  1 S  2.80800000E+02  0.021087
  1 S  7.92700000E+01  0.081853
  1 S  2.55900000E+01  0.234817
  1 S  8.99700000E+00  0.434401
  1 S  3.31900000E+00  0.346129
  1 S  3.64300000E-01 -0.008983
 
  2 S  8.23600000E+03 -0.000113
  2 S  1.23500000E+03 -0.000878
  2 S  2.80800000E+02 -0.004540
  2 S  7.92700000E+01 -0.018133
  2 S  2.55900000E+01 -0.055760
  2 S  8.99700000E+00 -0.126895
  2 S  3.31900000E+00 -0.170352
  2 S  3.64300000E-01  0.598684
 
  3 S  9.05900000E-01  1.000000
 
  4 S  1.28500000E-01  1.000000
 
  5 S  4.40200000E-02  1.000000
 
  6 P  1.87100000E+01  0.014031
  6 P  4.13300000E+00  0.086866
  6 P  1.20000000E+00  0.290216
 
  7 P  3.82700000E-01  1.000000
 
  8 P  1.20900000E-01  1.000000
 
  9 P  3.56900000E-02  1.000000
 
 10 D  1.09700000E+00  1.000000
 
 11 D  3.18000000E-01  1.000000
 
 12 D  1.00000000E-01  1.000000
 
 13 F  7.61000000E-01  1.000000
 
 14 F  2.68000000E-01  1.000000
 
  H (Hydrogen)
  ------------
            Exponent  Coefficients 
       -------------- ---------------------------------------------------------
  1 S  3.38700000E+01  0.006068
  1 S  5.09500000E+00  0.045308
  1 S  1.15900000E+00  0.202822
 
  2 S  3.25800000E-01  1.000000
 
  3 S  1.02700000E-01  1.000000
 
  4 S  2.52600000E-02  1.000000
 
  5 P  1.40700000E+00  1.000000
 
  6 P  3.88000000E-01  1.000000
 
  7 P  1.02000000E-01  1.000000
 
  8 D  1.05700000E+00  1.000000
 
  9 D  2.47000000E-01  1.000000
 


 Summary of "ao basis" -> "ao basis" (spherical)
 ------------------------------------------------------------------------------
       Tag                 Description            Shells   Functions and Types
 ---------------- ------------------------------  ------  ---------------------
 C                        aug-cc-pvtz               14       46   5s4p3d2f
 H                        aug-cc-pvtz                9       23   4s3p2d




 Summary of "ao basis" -> "ao basis" (spherical)
 ------------------------------------------------------------------------------
       Tag                 Description            Shells   Functions and Types
 ---------------- ------------------------------  ------  ---------------------
 C                        aug-cc-pvtz               14       46   5s4p3d2f
 H                        aug-cc-pvtz                9       23   4s3p2d


  Caching 1-el integrals 
 
            General Information
            -------------------
          SCF calculation type: DFT
          Wavefunction type:  spin polarized.
          No. of atoms     :    11
          No. of electrons :    41
           Alpha electrons :    21
            Beta electrons :    20
          Charge           :     0
          Spin multiplicity:     2
          Use of symmetry is: off; symmetry adaption is: off
          Maximum number of iterations: 500
          This is a Direct SCF calculation.
          AO basis - number of functions:   391
                     number of shells:   129
          Convergence on energy requested:  1.00D-06
          Convergence on density requested:  1.00D-05
          Convergence on gradient requested:  5.00D-04
 
              XC Information
              --------------
                         B3LYP Method XC Potential
                     Hartree-Fock (Exact) Exchange  0.200          
                        Slater Exchange Functional  0.800 local    
                    Becke 1988 Exchange Functional  0.720 non-local
              Lee-Yang-Parr Correlation Functional  0.810          
                  VWN I RPA Correlation Functional  0.190 local    
 
             Grid Information
             ----------------
          Grid used for XC integration:  medium    
          Radial quadrature: Mura-Knowles        
          Angular quadrature: Lebedev. 
          Tag              B.-S. Rad. Rad. Pts. Rad. Cut. Ang. Pts.
          ---              ---------- --------- --------- ---------
          C                   0.70       49          15.0       434
          H                   0.35       45          17.0       434
          Grid pruning is: on 
          Number of quadrature shells:   519
          Spatial weights used:  Erf1
 
          Convergence Information
          -----------------------
          Convergence aids based upon iterative change in 
          total energy or number of iterations. 
          Levelshifting, if invoked, occurs when the 
          HOMO/LUMO gap drops below (HL_TOL):  1.00D-02
          DIIS, if invoked, will attempt to extrapolate 
          using up to (NFOCK): 10 stored Fock matrices.

                    Damping( 0%)  Levelshifting(0.5)       DIIS
                  --------------- ------------------- ---------------
          dE  on:    start            ASAP                start   
          dE off:    2 iters        500 iters           500 iters 

 
      Screening Tolerance Information
      -------------------------------
          Density screening/tol_rho:  1.00D-10
          AO Gaussian exp screening on grid/accAOfunc:  14
          CD Gaussian exp screening on grid/accCDfunc:  20
          XC Gaussian exp screening on grid/accXCfunc:  20
          Schwarz screening/accCoul:  1.00D-08

 
 WARNING : Found     7 linear dependencies 
 S eigenvalue threshold:     1.00000E-05
 Smallest S eigenvalue :     1.46374E-06
 Largest  S eigenvalue :     7.76608E-06
 

 !! The overlap matrix has   7 vectors deemed linearly dependent with
    eigenvalues:
 1.46D-06 2.24D-06 2.83D-06 3.54D-06 5.28D-06 5.95D-06 7.77D-06
 
 
      Superposition of Atomic Density Guess
      -------------------------------------
 
 Sum of atomic energies:        -228.52307259
 
      Non-variational initial energy
      ------------------------------

 Total energy =    -232.667200
 1-e energy   =    -691.328421
 2-e energy   =     263.597275
 HOMO         =      -0.183326
 LUMO         =      -0.022269
 
   Time after variat. SCF:     10.0
   Time prior to 1st pass:     10.0

 Grid_pts file          = ./mode720.47-p.gridpts.00
 Record size in doubles =  12289        No. of grid_pts per rec  =   3070
 Max. records in memory =      6        Max. recs in file   = 218689771

 Grid integrated density:      40.999765888083
 Requested integration accuracy:   0.10E-05

           Memory utilization after 1st SCF pass: 
           Heap Space remaining (MW):       12.96            12961278
          Stack Space remaining (MW):       13.10            13103676

   convergence    iter        energy       DeltaE   RMS-Dens  Diis-err    time
 ---------------- ----- ----------------- --------- --------- ---------  ------
 d= 0,ls=0.0,diis     1   -231.5815910299 -4.27D+02  6.18D-02  2.09D-01    21.5
                                                     6.98D-02  1.96D-01
 d= 0,ls=0.0,diis     2   -231.6398334905 -5.82D-02  6.09D-02  1.22D-02    33.0
                                                     6.87D-02  1.25D-02
 d= 0,ls=0.0,diis     3   -231.6446108557 -4.78D-03  1.28D-03  3.44D-03    44.6
                                                     1.38D-03  3.50D-03
 d= 0,ls=0.0,diis     4   -231.6457677037 -1.16D-03  2.03D-04  1.12D-03    56.3
                                                     2.07D-04  1.06D-03
 d= 0,ls=0.0,diis     5   -231.6462858676 -5.18D-04  3.40D-05  4.24D-05    67.9
                                                     3.12D-05  4.84D-05
  Resetting Diis
 d= 0,ls=0.0,diis     6   -231.6463137454 -2.79D-05  1.11D-05  7.81D-06    79.6
                                                     1.06D-05  6.30D-06
 d= 0,ls=0.0,diis     7   -231.6463199387 -6.19D-06  7.31D-06  2.13D-06    91.3
                                                     6.52D-06  2.39D-06
 d= 0,ls=0.0,diis     8   -231.6463210142 -1.08D-06  3.05D-06  5.48D-06   103.0
                                                     2.70D-06  4.82D-06
 d= 0,ls=0.0,diis     9   -231.6463243027 -3.29D-06  3.74D-06  3.84D-07   114.7
                                                     3.31D-06  3.27D-07
 d= 0,ls=0.0,diis    10   -231.6463256060 -1.30D-06  2.14D-06  1.90D-07   126.5
                                                     2.45D-06  2.89D-07
 d= 0,ls=0.0,diis    11   -231.6463260407 -4.35D-07  5.94D-07  1.19D-08   138.2
                                                     5.14D-07  9.03D-09


         Total DFT energy =     -231.646326040700
      One electron energy =     -696.560865861141
           Coulomb energy =      304.259778890503
    Exchange-Corr. energy =      -34.409186209929
 Nuclear repulsion energy =      195.063947139867

 Numeric. integr. density =       40.999984400628

     Total iterative time =    128.3s


 
                    DFT Final Alpha Molecular Orbital Analysis
                    ------------------------------------------
 
 Vector    1  Occ=1.000000D+00  E=-1.020526D+01
              MO Center= -8.7D-02,  1.4D+00,  3.8D-04, r^2= 3.0D-02
   Bfn.  Coefficient  Atom+Function         Bfn.  Coefficient  Atom+Function  
  ----- ------------  ---------------      ----- ------------  ---------------
     1      0.984164   1 C  s                 3      0.058854   1 C  s         
    50     -0.038419   2 C  s               234     -0.038419   6 C  s         
   143      0.037875   4 C  s               279      0.037950   7 H  s         
   371      0.037948  11 H  s                51     -0.030670   2 C  s         
   235     -0.030669   6 C  s                47      0.025288   2 C  s         
 
 Vector    2  Occ=1.000000D+00  E=-1.019183D+01
              MO Center= -7.3D-01, -6.3D-01, -1.9D-04, r^2= 9.6D-01
   Bfn.  Coefficient  Atom+Function         Bfn.  Coefficient  Atom+Function  
  ----- ------------  ---------------      ----- ------------  ---------------
    93      0.874156   3 C  s               185      0.411965   5 C  s         
    47      0.176740   2 C  s               142     -0.092908   4 C  s         
   231      0.071978   6 C  s               139      0.055744   4 C  s         
    95      0.052266   3 C  s               302      0.049057   8 H  s         
   325      0.048087   9 H  s               234      0.036381   6 C  s         
 
 Vector    3  Occ=1.000000D+00  E=-1.019180D+01
              MO Center=  8.1D-01, -5.2D-01, -2.0D-04, r^2= 9.8D-01
   Bfn.  Coefficient  Atom+Function         Bfn.  Coefficient  Atom+Function  
  ----- ------------  ---------------      ----- ------------  ---------------
   185      0.872149   5 C  s                93     -0.407761   3 C  s         
   231      0.190322   6 C  s                47     -0.100646   2 C  s         
    50      0.062541   2 C  s               348      0.059053  10 H  s         
    51      0.052890   2 C  s               187      0.051927   5 C  s         
   279     -0.051674   7 H  s               234     -0.051088   6 C  s         
 
 Vector    4  Occ=1.000000D+00  E=-1.019034D+01
              MO Center= -1.1D+00,  6.4D-01, -5.8D-04, r^2= 3.9D-01
   Bfn.  Coefficient  Atom+Function         Bfn.  Coefficient  Atom+Function  
  ----- ------------  ---------------      ----- ------------  ---------------
    47      0.940305   2 C  s               231      0.221276   6 C  s         
    93     -0.191930   3 C  s               279      0.058560   7 H  s         
    49      0.054939   2 C  s               143      0.037880   4 C  s         
     4     -0.035239   1 C  s               185     -0.033104   5 C  s         
   142     -0.032010   4 C  s               189      0.031693   5 C  s         
 
 Vector    5  Occ=1.000000D+00  E=-1.019033D+01
              MO Center=  1.0D+00,  7.7D-01, -5.8D-04, r^2= 4.0D-01
   Bfn.  Coefficient  Atom+Function         Bfn.  Coefficient  Atom+Function  
  ----- ------------  ---------------      ----- ------------  ---------------
   231      0.938695   6 C  s                47     -0.214415   2 C  s         
   185     -0.197564   5 C  s                93      0.056909   3 C  s         
   371      0.056258  11 H  s               233      0.054442   6 C  s         
    97      0.045926   3 C  s                96      0.041033   3 C  s         
   189     -0.039674   5 C  s                12     -0.037462   1 C  px        
 
 Vector    6  Occ=1.000000D+00  E=-1.018432D+01
              MO Center=  8.3D-02, -1.3D+00, -6.0D-04, r^2= 3.5D-02
   Bfn.  Coefficient  Atom+Function         Bfn.  Coefficient  Atom+Function  
  ----- ------------  ---------------      ----- ------------  ---------------
   139      0.984285   4 C  s               141      0.057792   4 C  s         
    96     -0.045906   3 C  s               188     -0.045908   5 C  s         
   325      0.046004   9 H  s               143     -0.043501   4 C  s         
     4      0.040390   1 C  s                93     -0.039662   3 C  s         
   185     -0.039747   5 C  s               151      0.036015   4 C  py        
 
 Vector    7  Occ=1.000000D+00  E=-8.724604D-01
              MO Center= -6.3D-03,  9.9D-02, -1.3D-04, r^2= 2.0D+00
   Bfn.  Coefficient  Atom+Function         Bfn.  Coefficient  Atom+Function  
  ----- ------------  ---------------      ----- ------------  ---------------
     2      0.214063   1 C  s                48      0.202671   2 C  s         
   232      0.202654   6 C  s                94      0.195596   3 C  s         
   186      0.195579   5 C  s               140      0.188217   4 C  s         
    50      0.090244   2 C  s               234      0.090234   6 C  s         
    96      0.088093   3 C  s               188      0.088088   5 C  s         
 
 Vector    8  Occ=1.000000D+00  E=-7.627319D-01
              MO Center= -6.3D-03,  1.0D-01,  5.5D-05, r^2= 2.8D+00
   Bfn.  Coefficient  Atom+Function         Bfn.  Coefficient  Atom+Function  
  ----- ------------  ---------------      ----- ------------  ---------------
    48      0.250858   2 C  s               232     -0.250868   6 C  s         
    94      0.243819   3 C  s               186     -0.243826   5 C  s         
    50      0.146209   2 C  s               234     -0.146217   6 C  s         
   279     -0.129361   7 H  s               371      0.129366  11 H  s         
   150     -0.115523   4 C  px               97      0.110861   3 C  s         
 
 Vector    9  Occ=1.000000D+00  E=-7.537327D-01
              MO Center=  9.2D-03, -1.5D-01,  3.1D-05, r^2= 2.6D+00
   Bfn.  Coefficient  Atom+Function         Bfn.  Coefficient  Atom+Function  
  ----- ------------  ---------------      ----- ------------  ---------------
   140     -0.300918   4 C  s                 2      0.278554   1 C  s         
    94     -0.148872   3 C  s               186     -0.148864   5 C  s         
    48      0.148026   2 C  s               142     -0.147425   4 C  s         
   232      0.148016   6 C  s                96     -0.104910   3 C  s         
   188     -0.104908   5 C  s                 4      0.103016   1 C  s         
 
 Vector   10  Occ=1.000000D+00  E=-6.187397D-01
              MO Center= -2.5D-03,  3.9D-02,  3.4D-04, r^2= 3.6D+00
   Bfn.  Coefficient  Atom+Function         Bfn.  Coefficient  Atom+Function  
  ----- ------------  ---------------      ----- ------------  ---------------
    94     -0.208567   3 C  s               186      0.208562   5 C  s         
    48      0.199457   2 C  s               232     -0.199463   6 C  s         
    50      0.183355   2 C  s               234     -0.183362   6 C  s         
    96     -0.146997   3 C  s               188      0.146986   5 C  s         
     6     -0.127295   1 C  px              144      0.116927   4 C  px        
 
 Vector   11  Occ=1.000000D+00  E=-6.035487D-01
              MO Center=  5.4D-03, -8.7D-02,  1.9D-04, r^2= 3.5D+00
   Bfn.  Coefficient  Atom+Function         Bfn.  Coefficient  Atom+Function  
  ----- ------------  ---------------      ----- ------------  ---------------
   142      0.258345   4 C  s                 2      0.238938   1 C  s         
   140      0.218767   4 C  s                 4      0.198697   1 C  s         
    94     -0.138339   3 C  s               186     -0.138359   5 C  s         
    50     -0.122718   2 C  s               234     -0.122708   6 C  s         
    96     -0.119270   3 C  s               188     -0.119282   5 C  s         
 
 Vector   12  Occ=1.000000D+00  E=-5.277269D-01
              MO Center=  9.4D-03, -1.5D-01,  4.9D-04, r^2= 4.1D+00
   Bfn.  Coefficient  Atom+Function         Bfn.  Coefficient  Atom+Function  
  ----- ------------  ---------------      ----- ------------  ---------------
   148      0.159262   4 C  py              145      0.138837   4 C  py        
   324     -0.126839   9 H  s                55      0.105300   2 C  px        
   240     -0.104900   6 C  py              323     -0.100377   9 H  s         
   237     -0.096178   6 C  py              193     -0.094439   5 C  px        
   278     -0.094489   7 H  s               370     -0.094483  11 H  s         
 
 Vector   13  Occ=1.000000D+00  E=-4.645295D-01
              MO Center= -6.7D-03,  1.0D-01, -2.2D-04, r^2= 2.7D+00
   Bfn.  Coefficient  Atom+Function         Bfn.  Coefficient  Atom+Function  
  ----- ------------  ---------------      ----- ------------  ---------------
     9      0.189041   1 C  px                6      0.175363   1 C  px        
   147      0.172357   4 C  px              144      0.159073   4 C  px        
   239     -0.136869   6 C  px              194     -0.134750   5 C  py        
    56     -0.131374   2 C  py               55     -0.121399   2 C  px        
   191     -0.121433   5 C  py              236     -0.121874   6 C  px        
 
 Vector   14  Occ=1.000000D+00  E=-4.631578D-01
              MO Center=  1.0D-02, -1.6D-01,  9.5D-04, r^2= 4.8D+00
   Bfn.  Coefficient  Atom+Function         Bfn.  Coefficient  Atom+Function  
  ----- ------------  ---------------      ----- ------------  ---------------
     2      0.176557   1 C  s               301      0.136700   8 H  s         
   347      0.136675  10 H  s               140     -0.129404   4 C  s         
   193      0.127764   5 C  px              196      0.120320   5 C  px        
   101     -0.118803   3 C  px              190      0.118565   5 C  px        
    96      0.117520   3 C  s               104     -0.117397   3 C  px        
 
 Vector   15  Occ=1.000000D+00  E=-4.399775D-01
              MO Center= -1.3D-02,  2.1D-01,  3.8D-04, r^2= 4.0D+00
   Bfn.  Coefficient  Atom+Function         Bfn.  Coefficient  Atom+Function  
  ----- ------------  ---------------      ----- ------------  ---------------
   240      0.143967   6 C  py              102      0.139209   3 C  py        
   237      0.132906   6 C  py              278     -0.131462   7 H  s         
   370      0.131459  11 H  s                99      0.130193   3 C  py        
    55      0.129422   2 C  px               56     -0.128746   2 C  py        
   194     -0.126948   5 C  py               53     -0.119657   2 C  py        
 
 Vector   16  Occ=1.000000D+00  E=-3.990524D-01
              MO Center=  4.9D-02, -7.8D-01,  4.1D-04, r^2= 3.3D+00
   Bfn.  Coefficient  Atom+Function         Bfn.  Coefficient  Atom+Function  
  ----- ------------  ---------------      ----- ------------  ---------------
   148      0.233510   4 C  py              145      0.209191   4 C  py        
   324     -0.198594   9 H  s               151      0.172703   4 C  py        
   323     -0.154029   9 H  s                10      0.138647   1 C  py        
    13      0.120980   1 C  py              240      0.115208   6 C  py        
    56      0.109434   2 C  py                7      0.107929   1 C  py        
 
 Vector   17  Occ=1.000000D+00  E=-3.837011D-01
              MO Center= -7.7D-03,  1.2D-01, -7.9D-04, r^2= 2.7D+00
   Bfn.  Coefficient  Atom+Function         Bfn.  Coefficient  Atom+Function  
  ----- ------------  ---------------      ----- ------------  ---------------
    11      0.173451   1 C  pz               57      0.156410   2 C  pz        
   241      0.156398   6 C  pz              103      0.152230   3 C  pz        
   195      0.152218   5 C  pz              149      0.145892   4 C  pz        
     8      0.136824   1 C  pz               54      0.125783   2 C  pz        
   238      0.125774   6 C  pz              100      0.121731   3 C  pz        
 
 Vector   18  Occ=1.000000D+00  E=-3.659893D-01
              MO Center=  9.1D-03, -1.4D-01,  5.4D-04, r^2= 4.1D+00
   Bfn.  Coefficient  Atom+Function         Bfn.  Coefficient  Atom+Function  
  ----- ------------  ---------------      ----- ------------  ---------------
   147     -0.169331   4 C  px              101      0.165177   3 C  px        
   193      0.165097   5 C  px              144     -0.159884   4 C  px        
     9      0.149416   1 C  px               98      0.149455   3 C  px        
   190      0.149152   5 C  px                6      0.141598   1 C  px        
   196      0.135655   5 C  px              104      0.133535   3 C  px        
 
 Vector   19  Occ=1.000000D+00  E=-2.685142D-01
              MO Center=  9.1D-04, -1.5D-02, -1.4D-04, r^2= 3.0D+00
   Bfn.  Coefficient  Atom+Function         Bfn.  Coefficient  Atom+Function  
  ----- ------------  ---------------      ----- ------------  ---------------
    11      0.245300   1 C  pz              149     -0.238554   4 C  pz        
     8      0.192908   1 C  pz              146     -0.190709   4 C  pz        
    14      0.176328   1 C  pz              152     -0.171622   4 C  pz        
   103     -0.126597   3 C  pz              195     -0.126467   5 C  pz        
    57      0.114765   2 C  pz              241      0.114883   6 C  pz        
 
 Vector   20  Occ=1.000000D+00  E=-2.678703D-01
              MO Center= -3.8D-03,  6.1D-02, -9.4D-04, r^2= 3.1D+00
   Bfn.  Coefficient  Atom+Function         Bfn.  Coefficient  Atom+Function  
  ----- ------------  ---------------      ----- ------------  ---------------
   103      0.207439   3 C  pz              195     -0.207520   5 C  pz        
    57      0.203847   2 C  pz              241     -0.203783   6 C  pz        
   100      0.165271   3 C  pz              192     -0.165336   5 C  pz        
    54      0.163241   2 C  pz              238     -0.163190   6 C  pz        
    60      0.150529   2 C  pz              106      0.149948   3 C  pz        
 
 Vector   21  Occ=1.000000D+00  E=-2.484187D-01
              MO Center= -8.2D-02,  1.3D+00,  1.9D-04, r^2= 2.3D+00
   Bfn.  Coefficient  Atom+Function         Bfn.  Coefficient  Atom+Function  
  ----- ------------  ---------------      ----- ------------  ---------------
    10      0.385994   1 C  py               13      0.337690   1 C  py        
     5      0.335238   1 C  s                 7      0.299344   1 C  py        
     4      0.279432   1 C  s                 2      0.138349   1 C  s         
   243     -0.136195   6 C  py               59     -0.134140   2 C  py        
   102      0.112396   3 C  py              194      0.112407   5 C  py        
 
 Vector   22  Occ=0.000000D+00  E=-2.600750D-02
              MO Center= -4.3D-03,  6.8D-02, -1.5D-03, r^2= 4.3D+00
   Bfn.  Coefficient  Atom+Function         Bfn.  Coefficient  Atom+Function  
  ----- ------------  ---------------      ----- ------------  ---------------
   109     -0.320094   3 C  pz              201      0.320074   5 C  pz        
    63      0.314641   2 C  pz              247     -0.314627   6 C  pz        
    60      0.226969   2 C  pz              244     -0.226961   6 C  pz        
   106     -0.223735   3 C  pz              198      0.223723   5 C  pz        
    57      0.218765   2 C  pz              241     -0.218761   6 C  pz        
 
 Vector   23  Occ=0.000000D+00  E=-1.861308D-02
              MO Center=  3.1D-03, -5.0D-02, -1.4D-03, r^2= 4.3D+00
   Bfn.  Coefficient  Atom+Function         Bfn.  Coefficient  Atom+Function  
  ----- ------------  ---------------      ----- ------------  ---------------
   155      0.439587   4 C  pz               17      0.373554   1 C  pz        
   152      0.273940   4 C  pz               11      0.258952   1 C  pz        
   149      0.250782   4 C  pz               14      0.240482   1 C  pz        
   109     -0.226069   3 C  pz              201     -0.226079   5 C  pz        
     8      0.200623   1 C  pz               63     -0.198213   2 C  pz        
 
 Vector   24  Occ=0.000000D+00  E=-1.011008D-02
              MO Center=  6.0D-02, -9.5D-01,  5.9D-03, r^2= 2.0D+01
   Bfn.  Coefficient  Atom+Function         Bfn.  Coefficient  Atom+Function  
  ----- ------------  ---------------      ----- ------------  ---------------
     5      1.446717   1 C  s               279     -0.976464   7 H  s         
   371     -0.976462  11 H  s               326     -0.741569   9 H  s         
   303     -0.730326   8 H  s               349     -0.730191  10 H  s         
   302     -0.650209   8 H  s               348     -0.650218  10 H  s         
   325     -0.588324   9 H  s                51      0.561461   2 C  s         
 
 Vector   25  Occ=0.000000D+00  E= 4.381973D-03
              MO Center=  1.6D-02, -2.6D-01,  5.5D-03, r^2= 2.7D+01
   Bfn.  Coefficient  Atom+Function         Bfn.  Coefficient  Atom+Function  
  ----- ------------  ---------------      ----- ------------  ---------------
    51      2.731988   2 C  s               235     -2.731705   6 C  s         
    97      2.672785   3 C  s               189     -2.672793   5 C  s         
   303      1.996682   8 H  s               349     -1.996798  10 H  s         
    15      1.866842   1 C  px              153      1.807495   4 C  px        
   280      1.540136   7 H  s               372     -1.540018  11 H  s         
 
 Vector   26  Occ=0.000000D+00  E= 8.728789D-03
              MO Center=  4.6D-03, -7.3D-02,  5.0D-03, r^2= 2.7D+01
   Bfn.  Coefficient  Atom+Function         Bfn.  Coefficient  Atom+Function  
  ----- ------------  ---------------      ----- ------------  ---------------
   143      6.245339   4 C  s                51     -4.009896   2 C  s         
   235     -4.010073   6 C  s               326      2.932182   9 H  s         
     5      2.589952   1 C  s               280     -2.388400   7 H  s         
   372     -2.388401  11 H  s               154      1.947104   4 C  py        
   246      1.934053   6 C  py               62      1.829892   2 C  py        
 
 Vector   27  Occ=0.000000D+00  E= 2.670490D-02
              MO Center= -1.5D-02,  2.4D-01,  3.8D-03, r^2= 3.1D+01
   Bfn.  Coefficient  Atom+Function         Bfn.  Coefficient  Atom+Function  
  ----- ------------  ---------------      ----- ------------  ---------------
   280      3.932395   7 H  s               372     -3.932471  11 H  s         
    51      3.659331   2 C  s               235     -3.659723   6 C  s         
   303     -3.601913   8 H  s               349      3.601751  10 H  s         
    61      2.222148   2 C  px               97     -2.189818   3 C  s         
   189      2.189829   5 C  s               199     -2.040921   5 C  px        
 
 Vector   28  Occ=0.000000D+00  E= 3.221606D-02
              MO Center=  3.9D-02, -6.2D-01,  2.4D-03, r^2= 2.9D+01
   Bfn.  Coefficient  Atom+Function         Bfn.  Coefficient  Atom+Function  
  ----- ------------  ---------------      ----- ------------  ---------------
     5      6.396908   1 C  s               326     -4.998431   9 H  s         
   303      3.725503   8 H  s               349      3.725824  10 H  s         
    97     -2.179762   3 C  s               154     -2.176410   4 C  py        
   189     -2.179416   5 C  s               199     -1.647719   5 C  px        
   245      1.634060   6 C  px               61     -1.580565   2 C  px        
 
 Vector   29  Occ=0.000000D+00  E= 4.329398D-02
              MO Center=  1.4D-02, -2.2D-01, -1.3D-03, r^2= 1.3D+01
   Bfn.  Coefficient  Atom+Function         Bfn.  Coefficient  Atom+Function  
  ----- ------------  ---------------      ----- ------------  ---------------
   155      0.598846   4 C  pz               63      0.576475   2 C  pz        
   247      0.576434   6 C  pz               17     -0.260463   1 C  pz        
     5     -0.163825   1 C  s                60     -0.154855   2 C  pz        
   244     -0.154877   6 C  pz              289     -0.123518   7 H  pz        
   381     -0.123516  11 H  pz              259      0.119703   6 C  d -1      
 
 Vector   30  Occ=0.000000D+00  E= 5.496326D-02
              MO Center=  9.4D-03, -1.5D-01, -4.0D-03, r^2= 1.5D+01
   Bfn.  Coefficient  Atom+Function         Bfn.  Coefficient  Atom+Function  
  ----- ------------  ---------------      ----- ------------  ---------------
     5     10.709212   1 C  s               143      5.281923   4 C  s         
    51     -4.488267   2 C  s               235     -4.488214   6 C  s         
   303     -2.801044   8 H  s               349     -2.800979  10 H  s         
   326      2.060411   9 H  s               199      2.006575   5 C  px        
    97     -1.951629   3 C  s               189     -1.951526   5 C  s         
 
 Vector   31  Occ=0.000000D+00  E= 6.335000D-02
              MO Center= -4.1D-02,  6.5D-01,  3.8D-03, r^2= 2.8D+01
   Bfn.  Coefficient  Atom+Function         Bfn.  Coefficient  Atom+Function  
  ----- ------------  ---------------      ----- ------------  ---------------
     5     24.376790   1 C  s                51     -9.852522   2 C  s         
   235     -9.852389   6 C  s               143      7.620103   4 C  s         
    97     -6.510792   3 C  s               189     -6.510709   5 C  s         
   326      5.864948   9 H  s               154      4.770590   4 C  py        
   303     -4.682209   8 H  s               349     -4.682354  10 H  s         
 
 Vector   32  Occ=0.000000D+00  E= 6.574557D-02
              MO Center=  1.6D-03, -2.5D-02, -8.6D-03, r^2= 1.8D+01
   Bfn.  Coefficient  Atom+Function         Bfn.  Coefficient  Atom+Function  
  ----- ------------  ---------------      ----- ------------  ---------------
   109      0.976511   3 C  pz              201     -0.976508   5 C  pz        
    63      0.770321   2 C  pz              247     -0.770279   6 C  pz        
   169     -0.677008   4 C  d  1             31     -0.583231   1 C  d  1      
   106      0.492427   3 C  pz              198     -0.492445   5 C  pz        
    60      0.488394   2 C  pz              244     -0.488364   6 C  pz        
 
 Vector   33  Occ=0.000000D+00  E= 6.826227D-02
              MO Center= -1.2D-02,  1.9D-01, -9.6D-03, r^2= 1.8D+01
   Bfn.  Coefficient  Atom+Function         Bfn.  Coefficient  Atom+Function  
  ----- ------------  ---------------      ----- ------------  ---------------
    63      1.024328   2 C  pz              247      1.024299   6 C  pz        
   109     -0.811979   3 C  pz              201     -0.811864   5 C  pz        
   155     -0.750640   4 C  pz               14      0.629607   1 C  pz        
   152     -0.617747   4 C  pz               17      0.458611   1 C  pz        
   213     -0.449554   5 C  d -1            121     -0.405727   3 C  d -1      
 
 Vector   34  Occ=0.000000D+00  E= 7.645698D-02
              MO Center=  9.2D-03, -1.6D-01,  9.8D-03, r^2= 3.4D+01
   Bfn.  Coefficient  Atom+Function         Bfn.  Coefficient  Atom+Function  
  ----- ------------  ---------------      ----- ------------  ---------------
    51     13.865466   2 C  s               235    -13.867443   6 C  s         
    97     12.410915   3 C  s               189    -12.411760   5 C  s         
    15      7.678705   1 C  px              153      7.709439   4 C  px        
   107      4.764681   3 C  px              303      4.691732   8 H  s         
   349     -4.691076  10 H  s               199      4.461647   5 C  px        
 
 Vector   35  Occ=0.000000D+00  E= 7.792176D-02
              MO Center=  2.1D-01, -3.3D+00,  9.9D-03, r^2= 2.1D+01
   Bfn.  Coefficient  Atom+Function         Bfn.  Coefficient  Atom+Function  
  ----- ------------  ---------------      ----- ------------  ---------------
   143     18.272418   4 C  s                51    -13.446180   2 C  s         
   235    -13.441763   6 C  s               326      7.026425   9 H  s         
    62      5.653547   2 C  py              246      5.677330   6 C  py        
   200      5.394384   5 C  py              154      5.273876   4 C  py        
   108      5.037366   3 C  py              279      4.190383   7 H  s         
 
 Vector   36  Occ=0.000000D+00  E= 8.155268D-02
              MO Center= -8.8D-02,  1.4D+00,  8.5D-03, r^2= 2.8D+01
   Bfn.  Coefficient  Atom+Function         Bfn.  Coefficient  Atom+Function  
  ----- ------------  ---------------      ----- ------------  ---------------
   143     20.709981   4 C  s                51     -8.945051   2 C  s         
   235     -8.947610   6 C  s               246      5.260531   6 C  py        
    62      5.166498   2 C  py              325     -4.965454   9 H  s         
   280     -4.564128   7 H  s               372     -4.564624  11 H  s         
   200      4.483108   5 C  py              326      4.499469   9 H  s         
 
 Vector   37  Occ=0.000000D+00  E= 8.317356D-02
              MO Center=  4.6D-02, -7.3D-01,  7.3D-04, r^2= 2.2D+01
   Bfn.  Coefficient  Atom+Function         Bfn.  Coefficient  Atom+Function  
  ----- ------------  ---------------      ----- ------------  ---------------
    97      4.941356   3 C  s               189     -4.941641   5 C  s         
    51     -3.129550   2 C  s               235      3.131960   6 C  s         
   108      2.795593   3 C  py              303      2.803919   8 H  s         
   349     -2.803942  10 H  s               200     -2.681695   5 C  py        
   153      2.603876   4 C  px               96      2.072960   3 C  s         
 
 Vector   38  Occ=0.000000D+00  E= 9.540180D-02
              MO Center= -5.5D-02,  8.8D-01,  3.5D-03, r^2= 3.1D+01
   Bfn.  Coefficient  Atom+Function         Bfn.  Coefficient  Atom+Function  
  ----- ------------  ---------------      ----- ------------  ---------------
    51     17.681598   2 C  s               235    -17.683305   6 C  s         
   280      7.217245   7 H  s               372     -7.217247  11 H  s         
    97     -6.905150   3 C  s               189      6.905409   5 C  s         
   108     -6.460955   3 C  py              303     -6.201603   8 H  s         
   349      6.201066  10 H  s               200      5.918624   5 C  py        
 
 Vector   39  Occ=0.000000D+00  E= 1.018007D-01
              MO Center= -7.1D-03,  1.1D-01,  1.4D-03, r^2= 1.9D+01
   Bfn.  Coefficient  Atom+Function         Bfn.  Coefficient  Atom+Function  
  ----- ------------  ---------------      ----- ------------  ---------------
    51     13.735612   2 C  s               235    -13.734662   6 C  s         
    97     10.883788   3 C  s               189    -10.884160   5 C  s         
    15     10.000707   1 C  px              153      9.716392   4 C  px        
   246     -6.096614   6 C  py              108     -6.023288   3 C  py        
   200      5.990128   5 C  py               62      5.910213   2 C  py        
 
 Vector   40  Occ=0.000000D+00  E= 1.064760D-01
              MO Center= -8.0D-03,  1.3D-01,  3.6D-03, r^2= 2.1D+01
   Bfn.  Coefficient  Atom+Function         Bfn.  Coefficient  Atom+Function  
  ----- ------------  ---------------      ----- ------------  ---------------
   143     18.275156   4 C  s                51     -9.937612   2 C  s         
   235     -9.937621   6 C  s                 5     -9.462276   1 C  s         
   107     -8.759022   3 C  px              199      7.977909   5 C  px        
   245     -7.043875   6 C  px              200      6.726563   5 C  py        
    61      6.488937   2 C  px              108      5.671875   3 C  py        
 
 Vector   41  Occ=0.000000D+00  E= 1.082039D-01
              MO Center= -1.0D-02,  1.6D-01, -3.2D-03, r^2= 2.2D+01
   Bfn.  Coefficient  Atom+Function         Bfn.  Coefficient  Atom+Function  
  ----- ------------  ---------------      ----- ------------  ---------------
    63      3.391626   2 C  pz              247     -3.391717   6 C  pz        
   109     -3.363136   3 C  pz              201      3.363485   5 C  pz        
    60      0.696858   2 C  pz              244     -0.696881   6 C  pz        
   106     -0.636795   3 C  pz              198      0.636872   5 C  pz        
    77     -0.380403   2 C  d  1            215      0.361317   5 C  d  1      
 
 Vector   42  Occ=0.000000D+00  E= 1.089656D-01
              MO Center=  3.0D-02, -4.7D-01, -4.8D-03, r^2= 2.1D+01
   Bfn.  Coefficient  Atom+Function         Bfn.  Coefficient  Atom+Function  
  ----- ------------  ---------------      ----- ------------  ---------------
   155      5.321181   4 C  pz              109     -3.442306   3 C  pz        
   201     -3.442097   5 C  pz               17      2.511227   1 C  pz        
   152      0.983396   4 C  pz              106     -0.603248   3 C  pz        
   198     -0.603218   5 C  pz              167      0.569388   4 C  d -1      
    14      0.504604   1 C  pz               63     -0.475826   2 C  pz        
 
 Vector   43  Occ=0.000000D+00  E= 1.094994D-01
              MO Center=  2.9D-02, -4.5D-01,  5.7D-03, r^2= 2.7D+01
   Bfn.  Coefficient  Atom+Function         Bfn.  Coefficient  Atom+Function  
  ----- ------------  ---------------      ----- ------------  ---------------
   326      7.669078   9 H  s               154      7.057058   4 C  py        
   303     -6.474369   8 H  s               349     -6.474724  10 H  s         
   143     -5.610348   4 C  s               108     -4.431014   3 C  py        
   200     -4.185562   5 C  py               62     -4.156981   2 C  py        
   246     -4.137475   6 C  py                4      3.926160   1 C  s         
 
 Vector   44  Occ=0.000000D+00  E= 1.178170D-01
              MO Center= -4.1D-02,  6.5D-01, -6.1D-03, r^2= 1.4D+01
   Bfn.  Coefficient  Atom+Function         Bfn.  Coefficient  Atom+Function  
  ----- ------------  ---------------      ----- ------------  ---------------
    17      6.879779   1 C  pz               63     -6.023100   2 C  pz        
   247     -6.022938   6 C  pz              109      5.053121   3 C  pz        
   201      5.052947   5 C  pz              155     -4.823470   4 C  pz        
    14      1.235850   1 C  pz               60     -1.020565   2 C  pz        
   244     -1.020528   6 C  pz              106      0.892346   3 C  pz        
 
 Vector   45  Occ=0.000000D+00  E= 1.264079D-01
              MO Center= -1.8D-02,  2.9D-01, -1.9D-04, r^2= 2.5D+01
   Bfn.  Coefficient  Atom+Function         Bfn.  Coefficient  Atom+Function  
  ----- ------------  ---------------      ----- ------------  ---------------
    51      7.587839   2 C  s               235     -7.587744   6 C  s         
   107      7.204036   3 C  px              199      7.126897   5 C  px        
   245     -7.037134   6 C  px               61     -6.926862   2 C  px        
    15      6.444134   1 C  px               97     -6.192908   3 C  s         
   189      6.192984   5 C  s               153     -5.818598   4 C  px        
 
 Vector   46  Occ=0.000000D+00  E= 1.274499D-01
              MO Center= -1.2D-02,  1.9D-01, -2.7D-04, r^2= 2.6D+01
   Bfn.  Coefficient  Atom+Function         Bfn.  Coefficient  Atom+Function  
  ----- ------------  ---------------      ----- ------------  ---------------
   154     -8.032108   4 C  py               16      7.424946   1 C  py        
   108      6.889025   3 C  py               62     -6.576373   2 C  py        
   200      6.571165   5 C  py              246     -6.383493   6 C  py        
   326     -4.051476   9 H  s                 5      3.565564   1 C  s         
   303      3.164644   8 H  s               349      3.165012  10 H  s         
 
 Vector   47  Occ=0.000000D+00  E= 1.609541D-01
              MO Center= -8.5D-03,  1.4D-01,  7.7D-04, r^2= 1.7D+01
   Bfn.  Coefficient  Atom+Function         Bfn.  Coefficient  Atom+Function  
  ----- ------------  ---------------      ----- ------------  ---------------
    17      8.192510   1 C  pz               63     -8.003951   2 C  pz        
   247     -8.004056   6 C  pz              155     -7.856029   4 C  pz        
   109      7.770678   3 C  pz              201      7.770784   5 C  pz        
    60     -1.191804   2 C  pz              106      1.192779   3 C  pz        
   198      1.192804   5 C  pz              244     -1.191825   6 C  pz        
 
 Vector   48  Occ=0.000000D+00  E= 1.660215D-01
              MO Center= -8.9D-02,  1.4D+00, -4.0D-03, r^2= 2.2D+01
   Bfn.  Coefficient  Atom+Function         Bfn.  Coefficient  Atom+Function  
  ----- ------------  ---------------      ----- ------------  ---------------
     5     59.208098   1 C  s                51    -25.981093   2 C  s         
   143     25.962198   4 C  s               235    -25.981756   6 C  s         
    97    -14.415435   3 C  s               189    -14.414440   5 C  s         
   154      7.428104   4 C  py              245      6.813737   6 C  px        
    61     -6.399000   2 C  px              326      6.155934   9 H  s         
 
 Vector   49  Occ=0.000000D+00  E= 1.754183D-01
              MO Center=  2.5D-02, -3.9D-01, -3.5D-02, r^2= 1.1D+01
   Bfn.  Coefficient  Atom+Function         Bfn.  Coefficient  Atom+Function  
  ----- ------------  ---------------      ----- ------------  ---------------
   335      1.104141   9 H  pz              312      1.078842   8 H  pz        
   358      1.078790  10 H  pz              289      0.972801   7 H  pz        
   381      0.972756  11 H  pz               17      0.958734   1 C  pz        
    63     -0.884444   2 C  pz              247     -0.884413   6 C  pz        
   106     -0.842939   3 C  pz              198     -0.842879   5 C  pz        
 
 Vector   50  Occ=0.000000D+00  E= 1.864301D-01
              MO Center=  3.4D-02, -5.5D-01,  3.7D-02, r^2= 1.5D+01
   Bfn.  Coefficient  Atom+Function         Bfn.  Coefficient  Atom+Function  
  ----- ------------  ---------------      ----- ------------  ---------------
     5     15.503534   1 C  s                97     -7.270956   3 C  s         
   189     -7.270555   5 C  s                51     -4.472841   2 C  s         
   235     -4.472658   6 C  s               325      4.424782   9 H  s         
    62     -4.044033   2 C  py              154      3.979261   4 C  py        
   246     -3.822122   6 C  py              302      3.260609   8 H  s         
 
 Vector   51  Occ=0.000000D+00  E= 1.980400D-01
              MO Center= -3.0D-02,  4.7D-01, -4.4D-03, r^2= 2.3D+01
   Bfn.  Coefficient  Atom+Function         Bfn.  Coefficient  Atom+Function  
  ----- ------------  ---------------      ----- ------------  ---------------
    51     44.602809   2 C  s               235    -44.589489   6 C  s         
    97     25.202638   3 C  s               189    -25.206239   5 C  s         
    15     18.497339   1 C  px              153     17.066691   4 C  px        
   302    -14.010071   8 H  s               348     14.011258  10 H  s         
   200      9.224587   5 C  py              108     -8.512255   3 C  py        
 
 Vector   52  Occ=0.000000D+00  E= 1.984419D-01
              MO Center=  4.6D-02, -7.3D-01, -7.8D-03, r^2= 2.3D+01
   Bfn.  Coefficient  Atom+Function         Bfn.  Coefficient  Atom+Function  
  ----- ------------  ---------------      ----- ------------  ---------------
   143     61.318152   4 C  s                51    -34.525203   2 C  s         
   235    -34.542397   6 C  s               325    -16.864135   9 H  s         
    62     14.721405   2 C  py              246     14.448841   6 C  py        
   200     13.769533   5 C  py              108     12.557700   3 C  py        
     5    -11.578997   1 C  s               279     11.179224   7 H  s         
 
 Vector   53  Occ=0.000000D+00  E= 2.154378D-01
              MO Center=  8.8D-02, -1.4D+00,  6.4D-04, r^2= 1.5D+01
   Bfn.  Coefficient  Atom+Function         Bfn.  Coefficient  Atom+Function  
  ----- ------------  ---------------      ----- ------------  ---------------
    97     13.859214   3 C  s               189    -13.858709   5 C  s         
    96      6.547688   3 C  s               188     -6.547755   5 C  s         
   153      6.324650   4 C  px              279     -5.135888   7 H  s         
   371      5.135649  11 H  s               303      4.736283   8 H  s         
   349     -4.736022  10 H  s               246     -4.493488   6 C  py        
 
 Vector   54  Occ=0.000000D+00  E= 2.182736D-01
              MO Center=  1.8D-02, -2.8D-01,  1.5D-03, r^2= 1.5D+01
   Bfn.  Coefficient  Atom+Function         Bfn.  Coefficient  Atom+Function  
  ----- ------------  ---------------      ----- ------------  ---------------
   143     25.784279   4 C  s                51    -17.781746   2 C  s         
   235    -17.793217   6 C  s                 5     15.977029   1 C  s         
    16     -6.446943   1 C  py              325     -6.049363   9 H  s         
    62      4.840299   2 C  py              246      4.722992   6 C  py        
   279      3.739777   7 H  s               371      3.740353  11 H  s         
 
 Vector   55  Occ=0.000000D+00  E= 2.191093D-01
              MO Center=  5.4D-03, -8.4D-02, -2.2D-02, r^2= 1.5D+01
   Bfn.  Coefficient  Atom+Function         Bfn.  Coefficient  Atom+Function  
  ----- ------------  ---------------      ----- ------------  ---------------
    51     19.799978   2 C  s               235    -19.790677   6 C  s         
   108     -8.470770   3 C  py              200      8.112437   5 C  py        
    15      7.528742   1 C  px              302     -6.933172   8 H  s         
   348      6.933206  10 H  s               153      6.303415   4 C  px        
   246     -4.034324   6 C  py               62      3.898340   2 C  py        
 
 Vector   56  Occ=0.000000D+00  E= 2.301154D-01
              MO Center= -1.8D-02,  2.9D-01, -2.8D-02, r^2= 1.8D+01
   Bfn.  Coefficient  Atom+Function         Bfn.  Coefficient  Atom+Function  
  ----- ------------  ---------------      ----- ------------  ---------------
   199      4.905202   5 C  px              107      4.640470   3 C  px        
   153     -3.557496   4 C  px               50     -3.273780   2 C  s         
   234      3.273350   6 C  s               303      3.152111   8 H  s         
   349     -3.151491  10 H  s                15     -2.615931   1 C  px        
   108      2.411755   3 C  py               59      1.943383   2 C  py        
 
 Vector   57  Occ=0.000000D+00  E= 2.312018D-01
              MO Center= -1.5D-04,  2.3D-03,  4.8D-02, r^2= 1.6D+01
   Bfn.  Coefficient  Atom+Function         Bfn.  Coefficient  Atom+Function  
  ----- ------------  ---------------      ----- ------------  ---------------
   106      2.139525   3 C  pz              198     -2.139586   5 C  pz        
    60      2.044448   2 C  pz              244     -2.044374   6 C  pz        
   312     -1.815907   8 H  pz              358      1.815944  10 H  pz        
   289     -1.718203   7 H  pz              381      1.718167  11 H  pz        
   169     -1.376863   4 C  d  1             31     -1.246235   1 C  d  1      
 
 Vector   58  Occ=0.000000D+00  E= 2.354303D-01
              MO Center= -1.3D-02,  2.1D-01, -1.4D-02, r^2= 1.6D+01
   Bfn.  Coefficient  Atom+Function         Bfn.  Coefficient  Atom+Function  
  ----- ------------  ---------------      ----- ------------  ---------------
   143     14.933317   4 C  s                51    -10.475639   2 C  s         
   235    -10.466072   6 C  s               107     -8.189330   3 C  px        
   199      7.760405   5 C  px               61      5.430826   2 C  px        
   245     -5.309298   6 C  px              303     -4.418368   8 H  s         
   349     -4.419964  10 H  s                 5      4.071116   1 C  s         
 
 Vector   59  Occ=0.000000D+00  E= 2.365067D-01
              MO Center= -4.5D-03,  7.4D-02,  8.7D-03, r^2= 1.7D+01
   Bfn.  Coefficient  Atom+Function         Bfn.  Coefficient  Atom+Function  
  ----- ------------  ---------------      ----- ------------  ---------------
    97    -33.164624   3 C  s               189     33.165085   5 C  s         
    51     31.536232   2 C  s               235    -31.540132   6 C  s         
    96    -14.383084   3 C  s               188     14.382515   5 C  s         
   279     10.794993   7 H  s               371    -10.793973  11 H  s         
   302    -10.654568   8 H  s               348     10.654394  10 H  s         
 
 Vector   60  Occ=0.000000D+00  E= 2.434531D-01
              MO Center=  2.7D-03, -4.3D-02,  1.8D-02, r^2= 1.5D+01
   Bfn.  Coefficient  Atom+Function         Bfn.  Coefficient  Atom+Function  
  ----- ------------  ---------------      ----- ------------  ---------------
   152      3.413544   4 C  pz               14     -3.025480   1 C  pz        
   289      2.170665   7 H  pz              381      2.170677  11 H  pz        
   335     -2.124694   9 H  pz              261      2.001561   6 C  d  1      
    77     -1.986887   2 C  d  1             63     -1.597726   2 C  pz        
   247     -1.597652   6 C  pz              155      1.369946   4 C  pz        
 
 Vector   61  Occ=0.000000D+00  E= 2.594979D-01
              MO Center=  3.8D-02, -6.0D-01,  2.7D-03, r^2= 1.7D+01
   Bfn.  Coefficient  Atom+Function         Bfn.  Coefficient  Atom+Function  
  ----- ------------  ---------------      ----- ------------  ---------------
     5      8.704115   1 C  s               108     -6.643178   3 C  py        
   200     -6.053710   5 C  py              303     -5.177737   8 H  s         
   349     -5.177675  10 H  s               199      5.076661   5 C  px        
   197     -4.838274   5 C  py              143     -4.806233   4 C  s         
   105     -4.736418   3 C  py              154      4.355672   4 C  py        
 
 Vector   62  Occ=0.000000D+00  E= 2.620259D-01
              MO Center=  6.8D-02, -1.1D+00,  2.3D-03, r^2= 1.7D+01
   Bfn.  Coefficient  Atom+Function         Bfn.  Coefficient  Atom+Function  
  ----- ------------  ---------------      ----- ------------  ---------------
     5     18.963841   1 C  s               154     15.381778   4 C  py        
   143     15.152048   4 C  s                51    -14.562607   2 C  s         
   235    -14.563879   6 C  s               326      9.188149   9 H  s         
     4      6.019462   1 C  s               108     -4.778860   3 C  py        
    97     -4.661206   3 C  s               189     -4.659806   5 C  s         
 
 Vector   63  Occ=0.000000D+00  E= 2.676755D-01
              MO Center= -2.7D-02,  4.3D-01,  6.4D-04, r^2= 2.0D+01
   Bfn.  Coefficient  Atom+Function         Bfn.  Coefficient  Atom+Function  
  ----- ------------  ---------------      ----- ------------  ---------------
    51     20.195388   2 C  s               235    -20.195077   6 C  s         
    97    -11.909784   3 C  s               189     11.910170   5 C  s         
    61     11.014784   2 C  px              245     10.263857   6 C  px        
    96     -8.754988   3 C  s               188      8.755177   5 C  s         
   279      8.764131   7 H  s               371     -8.764377  11 H  s         
 
 Vector   64  Occ=0.000000D+00  E= 2.747978D-01
              MO Center= -1.5D-03,  2.3D-02, -2.1D-03, r^2= 1.4D+01
   Bfn.  Coefficient  Atom+Function         Bfn.  Coefficient  Atom+Function  
  ----- ------------  ---------------      ----- ------------  ---------------
   143      8.949772   4 C  s                 5      8.703214   1 C  s         
   154      5.767808   4 C  py              279     -5.655066   7 H  s         
   371     -5.654663  11 H  s               302     -4.648750   8 H  s         
   348     -4.648338  10 H  s               325     -4.357741   9 H  s         
    16     -4.033171   1 C  py              246      3.262425   6 C  py        
 
 Vector   65  Occ=0.000000D+00  E= 2.829797D-01
              MO Center= -1.2D-02,  1.8D-01,  7.4D-04, r^2= 1.6D+01
   Bfn.  Coefficient  Atom+Function         Bfn.  Coefficient  Atom+Function  
  ----- ------------  ---------------      ----- ------------  ---------------
    12      9.529397   1 C  px               97      8.895190   3 C  s         
   189     -8.895230   5 C  s               302      8.099921   8 H  s         
   348     -8.099507  10 H  s                51     -8.021364   2 C  s         
   235      8.020810   6 C  s               199      7.632558   5 C  px        
   107      7.160468   3 C  px              150      6.193326   4 C  px        
 
 Vector   66  Occ=0.000000D+00  E= 2.954383D-01
              MO Center= -3.3D-03,  5.2D-02, -1.8D-03, r^2= 1.6D+01
   Bfn.  Coefficient  Atom+Function         Bfn.  Coefficient  Atom+Function  
  ----- ------------  ---------------      ----- ------------  ---------------
    63      3.201334   2 C  pz              109     -3.188580   3 C  pz        
   201      3.188187   5 C  pz              247     -3.201112   6 C  pz        
   289     -2.279444   7 H  pz              381      2.279471  11 H  pz        
    60      2.256722   2 C  pz              244     -2.256736   6 C  pz        
   312      2.261806   8 H  pz              358     -2.261700  10 H  pz        
 
 Vector   67  Occ=0.000000D+00  E= 2.962831D-01
              MO Center= -6.0D-02,  9.6D-01,  2.6D-03, r^2= 1.4D+01
   Bfn.  Coefficient  Atom+Function         Bfn.  Coefficient  Atom+Function  
  ----- ------------  ---------------      ----- ------------  ---------------
     4     10.427919   1 C  s                59     -5.742773   2 C  py        
   243     -5.634050   6 C  py                5      5.529263   1 C  s         
   105     -5.529149   3 C  py              197     -5.140715   5 C  py        
    16      4.276124   1 C  py              279     -4.187809   7 H  s         
   371     -4.187562  11 H  s                13      3.915504   1 C  py        
 
 Vector   68  Occ=0.000000D+00  E= 3.080393D-01
              MO Center=  1.7D-02, -2.7D-01,  5.3D-04, r^2= 1.5D+01
   Bfn.  Coefficient  Atom+Function         Bfn.  Coefficient  Atom+Function  
  ----- ------------  ---------------      ----- ------------  ---------------
   155      5.178072   4 C  pz               14      4.363430   1 C  pz        
   109     -3.739448   3 C  pz              201     -3.739590   5 C  pz        
   335     -2.710436   9 H  pz               60     -2.049474   2 C  pz        
   244     -2.049368   6 C  pz              152      1.852378   4 C  pz        
    17      1.841689   1 C  pz               29     -1.719301   1 C  d -1      
 
 Vector   69  Occ=0.000000D+00  E= 3.150403D-01
              MO Center=  4.7D-03, -7.3D-02, -1.5D-02, r^2= 9.1D+00
   Bfn.  Coefficient  Atom+Function         Bfn.  Coefficient  Atom+Function  
  ----- ------------  ---------------      ----- ------------  ---------------
   261      1.252966   6 C  d  1             77      1.133217   2 C  d  1      
   169     -1.083498   4 C  d  1             75     -1.023978   2 C  d -1      
   259      0.873695   6 C  d -1            289     -0.721008   7 H  pz        
   381      0.721008  11 H  pz               31      0.634928   1 C  d  1      
    60     -0.336344   2 C  pz              244      0.336554   6 C  pz        
 
 Vector   70  Occ=0.000000D+00  E= 3.284583D-01
              MO Center=  3.9D-02, -6.1D-01, -2.8D-02, r^2= 1.5D+01
   Bfn.  Coefficient  Atom+Function         Bfn.  Coefficient  Atom+Function  
  ----- ------------  ---------------      ----- ------------  ---------------
   142     12.136028   4 C  s                96      8.710008   3 C  s         
   188      8.710147   5 C  s               151     -6.826233   4 C  py        
   325     -5.836854   9 H  s                 4     -5.230948   1 C  s         
   334     -5.000523   9 H  py                5      4.891041   1 C  s         
   302     -4.386990   8 H  s               348     -4.386402  10 H  s         
 
 Vector   71  Occ=0.000000D+00  E= 3.347738D-01
              MO Center= -1.5D-03,  2.3D-02,  2.5D-02, r^2= 7.7D+00
   Bfn.  Coefficient  Atom+Function         Bfn.  Coefficient  Atom+Function  
  ----- ------------  ---------------      ----- ------------  ---------------
   289      2.026260   7 H  pz              381      2.026420  11 H  pz        
   335      1.837088   9 H  pz               14     -1.770058   1 C  pz        
   155     -1.700328   4 C  pz               63     -1.542274   2 C  pz        
   247     -1.542295   6 C  pz               77     -1.509629   2 C  d  1      
   261      1.409757   6 C  d  1            106     -1.283007   3 C  pz        
 
 Vector   72  Occ=0.000000D+00  E= 3.433114D-01
              MO Center=  2.4D-02, -3.9D-01,  1.7D-02, r^2= 1.2D+01
   Bfn.  Coefficient  Atom+Function         Bfn.  Coefficient  Atom+Function  
  ----- ------------  ---------------      ----- ------------  ---------------
   169      3.293082   4 C  d  1             31      2.701386   1 C  d  1      
   312     -2.480184   8 H  pz              358      2.479863  10 H  pz        
   123      2.183875   3 C  d  1            215      2.143311   5 C  d  1      
   106     -1.797146   3 C  pz              198      1.797242   5 C  pz        
   289     -1.427768   7 H  pz              381      1.427631  11 H  pz        
 
 Vector   73  Occ=0.000000D+00  E= 3.449230D-01
              MO Center= -3.6D-02,  5.6D-01,  1.5D-02, r^2= 1.2D+01
   Bfn.  Coefficient  Atom+Function         Bfn.  Coefficient  Atom+Function  
  ----- ------------  ---------------      ----- ------------  ---------------
   143     23.704540   4 C  s               325    -13.019303   9 H  s         
   279     11.904765   7 H  s               371     11.907847  11 H  s         
    51    -11.757780   2 C  s               235    -11.765366   6 C  s         
     5     -7.689137   1 C  s               197     -6.908736   5 C  py        
   105     -6.789333   3 C  py              243     -6.023291   6 C  py        
 
 Vector   74  Occ=0.000000D+00  E= 3.478311D-01
              MO Center=  9.8D-03, -1.5D-01, -2.0D-02, r^2= 1.2D+01
   Bfn.  Coefficient  Atom+Function         Bfn.  Coefficient  Atom+Function  
  ----- ------------  ---------------      ----- ------------  ---------------
    51     21.168366   2 C  s               235    -21.163848   6 C  s         
   302    -11.975360   8 H  s               348     11.978007  10 H  s         
    97     10.949111   3 C  s               189    -10.951262   5 C  s         
   279     -9.757345   7 H  s               371      9.751164  11 H  s         
    12     -8.091067   1 C  px              150     -7.037371   4 C  px        
 
 Vector   75  Occ=0.000000D+00  E= 3.481638D-01
              MO Center=  3.3D-02, -5.2D-01, -1.7D-02, r^2= 1.3D+01
   Bfn.  Coefficient  Atom+Function         Bfn.  Coefficient  Atom+Function  
  ----- ------------  ---------------      ----- ------------  ---------------
   155     -3.970879   4 C  pz               17      3.780207   1 C  pz        
   109      3.560993   3 C  pz              201      3.561134   5 C  pz        
    63     -3.450532   2 C  pz              247     -3.450579   6 C  pz        
   152     -3.001138   4 C  pz              213     -2.309874   5 C  d -1      
   289      2.265679   7 H  pz              381      2.265651  11 H  pz        
 
 Vector   76  Occ=0.000000D+00  E= 3.527369D-01
              MO Center=  3.3D-02, -5.2D-01,  1.1D-02, r^2= 1.4D+01
   Bfn.  Coefficient  Atom+Function         Bfn.  Coefficient  Atom+Function  
  ----- ------------  ---------------      ----- ------------  ---------------
    17      6.388976   1 C  pz               63     -5.857295   2 C  pz        
   247     -5.857355   6 C  pz              109      5.124065   3 C  pz        
   201      5.124097   5 C  pz              155     -4.851877   4 C  pz        
   335      3.955978   9 H  pz               14      3.790576   1 C  pz        
   167      3.073585   4 C  d -1             60     -2.681322   2 C  pz        
 
 Vector   77  Occ=0.000000D+00  E= 3.546371D-01
              MO Center= -2.0D-02,  3.1D-01, -7.9D-03, r^2= 1.5D+01
   Bfn.  Coefficient  Atom+Function         Bfn.  Coefficient  Atom+Function  
  ----- ------------  ---------------      ----- ------------  ---------------
     5     31.317767   1 C  s               143     15.865415   4 C  s         
    51    -15.721247   2 C  s               235    -15.719310   6 C  s         
   151    -11.066282   4 C  py              196     -7.586459   5 C  px        
    50      7.380732   2 C  s               234      7.380629   6 C  s         
    13      7.266657   1 C  py              104      7.146174   3 C  px        
 
 Vector   78  Occ=0.000000D+00  E= 3.599061D-01
              MO Center= -4.7D-02,  7.5D-01,  1.6D-03, r^2= 1.3D+01
   Bfn.  Coefficient  Atom+Function         Bfn.  Coefficient  Atom+Function  
  ----- ------------  ---------------      ----- ------------  ---------------
   289      3.406145   7 H  pz              381     -3.406232  11 H  pz        
    60      3.157950   2 C  pz              244     -3.157995   6 C  pz        
    77     -3.083502   2 C  d  1            121     -3.088545   3 C  d -1      
   259      3.025895   6 C  d -1            213      2.787170   5 C  d -1      
   312     -2.763539   8 H  pz              358      2.763405  10 H  pz        
 
 Vector   79  Occ=0.000000D+00  E= 3.685599D-01
              MO Center=  3.6D-02, -5.7D-01,  3.8D-03, r^2= 1.3D+01
   Bfn.  Coefficient  Atom+Function         Bfn.  Coefficient  Atom+Function  
  ----- ------------  ---------------      ----- ------------  ---------------
    96     10.731711   3 C  s               188     10.730620   5 C  s         
   104     -8.499508   3 C  px              196      8.489958   5 C  px        
   142     -7.537379   4 C  s                 5      7.224141   1 C  s         
   212      5.398303   5 C  d -2            258      5.319981   6 C  d -2      
   120     -5.227064   3 C  d -2            242     -5.090674   6 C  px        
 
 Vector   80  Occ=0.000000D+00  E= 3.720966D-01
              MO Center=  2.0D-02, -3.1D-01,  2.1D-03, r^2= 1.3D+01
   Bfn.  Coefficient  Atom+Function         Bfn.  Coefficient  Atom+Function  
  ----- ------------  ---------------      ----- ------------  ---------------
    97      9.834472   3 C  s               189     -9.833302   5 C  s         
    50      9.030853   2 C  s               234     -9.030447   6 C  s         
   279     -5.478317   7 H  s               371      5.480638  11 H  s         
   357      5.246572  10 H  py              311     -5.125375   8 H  py        
   212     -4.882186   5 C  d -2             51     -4.812392   2 C  s         
 
 Vector   81  Occ=0.000000D+00  E= 3.819138D-01
              MO Center=  3.6D-02, -5.7D-01,  4.6D-03, r^2= 1.6D+01
   Bfn.  Coefficient  Atom+Function         Bfn.  Coefficient  Atom+Function  
  ----- ------------  ---------------      ----- ------------  ---------------
   166      9.079627   4 C  d -2            333      7.117624   9 H  px        
   150     -6.662451   4 C  px              216     -6.554997   5 C  d  2      
   124      6.099798   3 C  d  2            279      5.867401   7 H  s         
   371     -5.867645  11 H  s               310      5.085302   8 H  px        
   356      5.022136  10 H  px               96     -4.807408   3 C  s         
 
 Vector   82  Occ=0.000000D+00  E= 3.932696D-01
              MO Center= -2.9D-02,  4.6D-01,  8.5D-03, r^2= 1.5D+01
   Bfn.  Coefficient  Atom+Function         Bfn.  Coefficient  Atom+Function  
  ----- ------------  ---------------      ----- ------------  ---------------
    12     12.185260   1 C  px               51    -11.063038   2 C  s         
   235     11.063909   6 C  s                78     -9.085593   2 C  d  2      
   262      8.756376   6 C  d  2             15     -6.833239   1 C  px        
   216      6.674615   5 C  d  2            153     -5.865104   4 C  px        
   124     -5.831394   3 C  d  2            379     -5.816252  11 H  px        
 
 Vector   83  Occ=0.000000D+00  E= 3.960263D-01
              MO Center= -5.2D-02,  8.3D-01, -6.3D-03, r^2= 1.2D+01
   Bfn.  Coefficient  Atom+Function         Bfn.  Coefficient  Atom+Function  
  ----- ------------  ---------------      ----- ------------  ---------------
   152     -7.531284   4 C  pz              106      7.336536   3 C  pz        
   198      7.336693   5 C  pz               60     -6.479861   2 C  pz        
   244     -6.479920   6 C  pz              167     -6.334252   4 C  d -1      
   215      5.118095   5 C  d  1            123     -4.711874   3 C  d  1      
    14      4.573219   1 C  pz              259      4.026169   6 C  d -1      
 
 Vector   84  Occ=0.000000D+00  E= 4.017353D-01
              MO Center= -3.3D-02,  5.2D-01,  3.0D-03, r^2= 1.5D+01
   Bfn.  Coefficient  Atom+Function         Bfn.  Coefficient  Atom+Function  
  ----- ------------  ---------------      ----- ------------  ---------------
     5     51.755719   1 C  s                51    -19.787016   2 C  s         
   235    -19.783713   6 C  s                97    -17.391478   3 C  s         
   189    -17.388811   5 C  s               143     11.673050   4 C  s         
   142    -10.271672   4 C  s                 4     -9.673617   1 C  s         
    50     -7.939988   2 C  s               234     -7.940751   6 C  s         
 
 Vector   85  Occ=0.000000D+00  E= 4.053078D-01
              MO Center= -5.4D-03,  8.6D-02, -1.1D-03, r^2= 1.3D+01
   Bfn.  Coefficient  Atom+Function         Bfn.  Coefficient  Atom+Function  
  ----- ------------  ---------------      ----- ------------  ---------------
[...]
     Occ.   13 beta  a   ---  Virt.   21 beta  a    0.05599 X
     Occ.   15 beta  a   ---  Virt.   21 beta  a    0.10243 X
     Occ.   19 beta  a   ---  Virt.   24 beta  a    0.22084 X
     Occ.   19 beta  a   ---  Virt.   29 beta  a   -0.05001 X
     Occ.   20 beta  a   ---  Virt.   22 beta  a   -0.14463 X
  ----------------------------------------------------------------------------
  Root  27         a              0.251973631 a.u.                6.8566 eV 
  <S2> =   1.6619
  ----------------------------------------------------------------------------
     Transition Moments    X -0.00024   Y  0.00381   Z  0.24503
     Transition Moments   XX -0.00040  XY -0.00065  XZ -0.01065
     Transition Moments   YY  0.00991  YZ  0.16705  ZZ  0.00205
     Dipole Oscillator Strength                    0.0100882447
     Electric Quadrupole                           0.0000000024
     Magnetic Dipole                               0.0000000311
     Total Oscillator Strength                     0.0100882782
 
     Occ.   19 alpha a   ---  Virt.   26 alpha a    0.98231 X
     Occ.   19 alpha a   ---  Virt.   35 alpha a   -0.07114 X
     Occ.   19 alpha a   ---  Virt.   36 alpha a   -0.07363 X
     Occ.   20 alpha a   ---  Virt.   25 alpha a    0.11468 X
     Occ.   20 beta  a   ---  Virt.   26 beta  a    0.05039 X
  ----------------------------------------------------------------------------
  Root  28         a              0.252621047 a.u.                6.8742 eV 
  <S2> =   1.8893
  ----------------------------------------------------------------------------
     Transition Moments    X -0.00176   Y -0.00010   Z  0.00006
     Transition Moments   XX  0.00029  XY -0.00223  XZ  0.39298
     Transition Moments   YY -0.00026  YZ  0.02479  ZZ  0.00000
     Dipole Oscillator Strength                    0.0000005221
     Electric Quadrupole                           0.0000000133
     Magnetic Dipole                               0.0000000096
     Total Oscillator Strength                     0.0000005450
 
     Occ.   19 alpha a   ---  Virt.   25 alpha a   -0.24745 X
     Occ.   20 alpha a   ---  Virt.   26 alpha a   -0.96035 X
     Occ.   20 alpha a   ---  Virt.   35 alpha a    0.06153 X
     Occ.   20 alpha a   ---  Virt.   36 alpha a    0.06547 X
     Occ.   19 beta  a   ---  Virt.   26 beta  a    0.06478 X
  ----------------------------------------------------------------------------
  Root  29         a              0.253988467 a.u.                6.9114 eV 
  <S2> =   1.6186
  ----------------------------------------------------------------------------
     Transition Moments    X -0.00463   Y -0.00030   Z -0.00000
     Transition Moments   XX -0.00033  XY  0.00251  XZ -0.49361
     Transition Moments   YY  0.00029  YZ -0.03111  ZZ -0.00000
     Dipole Oscillator Strength                    0.0000036463
     Electric Quadrupole                           0.0000000213
     Magnetic Dipole                               0.0000000109
     Total Oscillator Strength                     0.0000036785
 
     Occ.   20 alpha a   ---  Virt.   26 alpha a    0.06936 X
     Occ.   19 beta  a   ---  Virt.   26 beta  a    0.98516 X
     Occ.   19 beta  a   ---  Virt.   35 beta  a   -0.05778 X
     Occ.   19 beta  a   ---  Virt.   36 beta  a   -0.07406 X
     Occ.   20 beta  a   ---  Virt.   25 beta  a    0.09686 X
  ----------------------------------------------------------------------------
  Root  30         a              0.254756419 a.u.                6.9323 eV 
  <S2> =   0.7707
  ----------------------------------------------------------------------------
     Transition Moments    X -1.50325   Y -0.09503   Z  0.00000
     Transition Moments   XX -0.02428  XY  0.18986  XZ  0.00913
     Transition Moments   YY  0.02355  YZ  0.00058  ZZ -0.00006
     Dipole Oscillator Strength                    0.3853270004
     Electric Quadrupole                           0.0000000032
     Magnetic Dipole                               0.0000000195
     Total Oscillator Strength                     0.3853270231
 
     Occ.   19 alpha a   ---  Virt.   22 alpha a   -0.38008 X
     Occ.   19 alpha a   ---  Virt.   22 alpha a    0.05311 Y
     Occ.   20 alpha a   ---  Virt.   23 alpha a    0.42682 X
     Occ.   20 alpha a   ---  Virt.   23 alpha a   -0.05109 Y
     Occ.   20 alpha a   ---  Virt.   29 alpha a   -0.14083 X
     Occ.   21 alpha a   ---  Virt.   25 alpha a    0.07643 X
     Occ.   21 alpha a   ---  Virt.   27 alpha a   -0.38970 X
     Occ.   13 beta  a   ---  Virt.   21 beta  a    0.12800 X
     Occ.   15 beta  a   ---  Virt.   21 beta  a    0.27044 X
     Occ.   19 beta  a   ---  Virt.   24 beta  a    0.49838 X
     Occ.   19 beta  a   ---  Virt.   29 beta  a   -0.13914 X
     Occ.   20 beta  a   ---  Virt.   22 beta  a   -0.34837 X
     Occ.   20 beta  a   ---  Virt.   22 beta  a    0.05611 Y
  ----------------------------------------------------------------------------
  Root  31         a              0.255406208 a.u.                6.9500 eV 
  <S2> =   0.8012
  ----------------------------------------------------------------------------
     Transition Moments    X  0.04058   Y -0.63635   Z  0.00068
     Transition Moments   XX -0.65028  XY  0.07812  XZ -0.00026
     Transition Moments   YY -1.88568  YZ  0.00430  ZZ -0.14658
     Dipole Oscillator Strength                    0.0692299038
     Electric Quadrupole                           0.0000000716
     Magnetic Dipole                               0.0000000000
     Total Oscillator Strength                     0.0692299754
 
     Occ.   19 alpha a   ---  Virt.   23 alpha a    0.10550 X
     Occ.   20 alpha a   ---  Virt.   22 alpha a    0.11463 X
     Occ.   21 alpha a   ---  Virt.   26 alpha a    0.18451 X
     Occ.   21 alpha a   ---  Virt.   28 alpha a   -0.90984 X
     Occ.   21 alpha a   ---  Virt.   30 alpha a   -0.12846 X
     Occ.   21 alpha a   ---  Virt.   31 alpha a   -0.16279 X
     Occ.   21 alpha a   ---  Virt.   48 alpha a    0.05656 X
     Occ.   16 beta  a   ---  Virt.   21 beta  a    0.18859 X
     Occ.   19 beta  a   ---  Virt.   22 beta  a    0.10932 X
     Occ.   20 beta  a   ---  Virt.   24 beta  a    0.09634 X
  ----------------------------------------------------------------------------
  Root  32         a              0.260752958 a.u.                7.0955 eV 
  <S2> =   0.8001
  ----------------------------------------------------------------------------
     Transition Moments    X -0.00003   Y  0.00044   Z -0.09559
     Transition Moments   XX -0.00096  XY  0.00017  XZ  0.04441
     Transition Moments   YY -0.00366  YZ -0.70496  ZZ -0.00150
     Dipole Oscillator Strength                    0.0015884588
     Electric Quadrupole                           0.0000000471
     Magnetic Dipole                               0.0000000330
     Total Oscillator Strength                     0.0015885389
 
     Occ.   21 alpha a   ---  Virt.   29 alpha a    0.97947 X
     Occ.   21 alpha a   ---  Virt.   33 alpha a    0.17996 X
  ----------------------------------------------------------------------------
  Root  33         a              0.265400950 a.u.                7.2219 eV 
  <S2> =   1.7807
  ----------------------------------------------------------------------------
     Transition Moments    X -0.00038   Y -0.00003   Z  0.00000
     Transition Moments   XX  0.00002  XY -0.00020  XZ  0.54581
     Transition Moments   YY -0.00000  YZ  0.03439  ZZ  0.00000
     Dipole Oscillator Strength                    0.0000000252
     Electric Quadrupole                           0.0000000298
     Magnetic Dipole                               0.0000000006
     Total Oscillator Strength                     0.0000000556
 
     Occ.   20 beta  a   ---  Virt.   27 beta  a    0.99103 X
     Occ.   20 beta  a   ---  Virt.   38 beta  a   -0.09649 X
  ----------------------------------------------------------------------------
  Root  34         a              0.267189541 a.u.                7.2706 eV 
  <S2> =   0.8216
  ----------------------------------------------------------------------------
     Transition Moments    X -0.07577   Y  1.20080   Z  0.00103
     Transition Moments   XX -0.01903  XY  0.04278  XZ  0.00015
     Transition Moments   YY -0.69494  YZ -0.00225  ZZ -0.04602
     Dipole Oscillator Strength                    0.2578683629
     Electric Quadrupole                           0.0000000151
     Magnetic Dipole                               0.0000000000
     Total Oscillator Strength                     0.2578683780
 
     Occ.   17 alpha a   ---  Virt.   23 alpha a    0.08608 X
     Occ.   19 alpha a   ---  Virt.   23 alpha a   -0.30515 X
     Occ.   19 alpha a   ---  Virt.   29 alpha a   -0.16160 X
     Occ.   20 alpha a   ---  Virt.   22 alpha a   -0.22284 X
     Occ.   21 alpha a   ---  Virt.   28 alpha a   -0.30121 X
     Occ.   21 alpha a   ---  Virt.   30 alpha a    0.42762 X
     Occ.   21 alpha a   ---  Virt.   31 alpha a   -0.08026 X
     Occ.   14 beta  a   ---  Virt.   21 beta  a    0.08799 X
     Occ.   16 beta  a   ---  Virt.   21 beta  a   -0.50157 X
     Occ.   19 beta  a   ---  Virt.   22 beta  a   -0.22350 X
     Occ.   20 beta  a   ---  Virt.   24 beta  a   -0.30729 X
     Occ.   20 beta  a   ---  Virt.   29 beta  a   -0.34425 X
  ----------------------------------------------------------------------------
  Root  35         a              0.270808711 a.u.                7.3691 eV 
  <S2> =   2.7046
  ----------------------------------------------------------------------------
     Transition Moments    X  0.00017   Y -0.00270   Z  0.00954
     Transition Moments   XX  0.00364  XY  0.00037  XZ -0.00960
     Transition Moments   YY -0.00220  YZ  0.15178  ZZ  0.00068
     Dipole Oscillator Strength                    0.0000177657
     Electric Quadrupole                           0.0000000024
     Magnetic Dipole                               0.0000000000
     Total Oscillator Strength                     0.0000177682
 
     Occ.   20 alpha a   ---  Virt.   27 alpha a   -0.79702 X
     Occ.   20 alpha a   ---  Virt.   38 alpha a    0.08796 X
     Occ.   19 beta  a   ---  Virt.   27 beta  a    0.57689 X
     Occ.   19 beta  a   ---  Virt.   38 beta  a   -0.06822 X
     Occ.   20 beta  a   ---  Virt.   28 beta  a    0.05376 X
     Occ.   20 beta  a   ---  Virt.   30 beta  a    0.06116 X
  ----------------------------------------------------------------------------
  Root  36         a              0.271252513 a.u.                7.3812 eV 
  <S2> =   2.7408
  ----------------------------------------------------------------------------
     Transition Moments    X  0.04869   Y  0.00303   Z -0.00000
     Transition Moments   XX  0.00376  XY -0.02852  XZ  0.00061
     Transition Moments   YY -0.00373  YZ  0.00003  ZZ  0.00004
     Dipole Oscillator Strength                    0.0004303842
     Electric Quadrupole                           0.0000000001
     Magnetic Dipole                               0.0000000018
     Total Oscillator Strength                     0.0004303861
 
     Occ.   17 alpha a   ---  Virt.   22 alpha a    0.59782 X
     Occ.   17 alpha a   ---  Virt.   41 alpha a   -0.05240 X
     Occ.   19 alpha a   ---  Virt.   32 alpha a   -0.08384 X
     Occ.   20 alpha a   ---  Virt.   29 alpha a    0.16431 X
     Occ.   20 alpha a   ---  Virt.   44 alpha a   -0.22729 X
     Occ.   20 alpha a   ---  Virt.   47 alpha a    0.17406 X
     Occ.   17 beta  a   ---  Virt.   22 beta  a   -0.64457 X
     Occ.   17 beta  a   ---  Virt.   41 beta  a    0.05433 X
     Occ.   19 beta  a   ---  Virt.   29 beta  a   -0.10210 X
     Occ.   19 beta  a   ---  Virt.   44 beta  a    0.20063 X
     Occ.   19 beta  a   ---  Virt.   47 beta  a   -0.16661 X
     Occ.   20 beta  a   ---  Virt.   31 beta  a    0.10177 X
  ----------------------------------------------------------------------------
  Root  37         a              0.271755953 a.u.                7.3949 eV 
  <S2> =   1.0520
  ----------------------------------------------------------------------------
     Transition Moments    X  0.03229   Y -0.51222   Z  0.00064
     Transition Moments   XX  1.05205  XY  0.11435  XZ -0.00058
     Transition Moments   YY -0.75540  YZ  0.00837  ZZ  0.23970
     Dipole Oscillator Strength                    0.0477227011
     Electric Quadrupole                           0.0000000890
     Magnetic Dipole                               0.0000000000
     Total Oscillator Strength                     0.0477227901
 
     Occ.   17 alpha a   ---  Virt.   23 alpha a   -0.06247 X
     Occ.   19 alpha a   ---  Virt.   23 alpha a    0.09110 X
     Occ.   21 alpha a   ---  Virt.   30 alpha a    0.79733 X
     Occ.   21 alpha a   ---  Virt.   31 alpha a   -0.20549 X
     Occ.   21 alpha a   ---  Virt.   35 alpha a    0.07436 X
     Occ.   21 alpha a   ---  Virt.   40 alpha a   -0.05669 X
     Occ.   14 beta  a   ---  Virt.   21 beta  a   -0.06321 X
     Occ.   16 beta  a   ---  Virt.   21 beta  a    0.18849 X
     Occ.   19 beta  a   ---  Virt.   22 beta  a    0.05845 X
     Occ.   20 beta  a   ---  Virt.   24 beta  a    0.09582 X
     Occ.   20 beta  a   ---  Virt.   29 beta  a    0.48477 X
  ----------------------------------------------------------------------------
  Root  38         a              0.271807565 a.u.                7.3963 eV 
  <S2> =   0.8293
  ----------------------------------------------------------------------------
     Transition Moments    X -0.00017   Y  0.00275   Z  0.02485
     Transition Moments   XX -0.00368  XY -0.00075  XZ -0.05507
     Transition Moments   YY  0.00817  YZ  0.87239  ZZ -0.00263
     Dipole Oscillator Strength                    0.0001133082
     Electric Quadrupole                           0.0000000817
     Magnetic Dipole                               0.0000000038
     Total Oscillator Strength                     0.0001133937
 
     Occ.   20 alpha a   ---  Virt.   27 alpha a   -0.57376 X
     Occ.   19 beta  a   ---  Virt.   27 beta  a   -0.80056 X
     Occ.   19 beta  a   ---  Virt.   38 beta  a    0.07511 X
     Occ.   20 beta  a   ---  Virt.   28 beta  a    0.12779 X
  ----------------------------------------------------------------------------
  Root  39         a              0.272285582 a.u.                7.4093 eV 
  <S2> =   1.7261
  ----------------------------------------------------------------------------
     Transition Moments    X -0.00004   Y  0.00004   Z -0.00002
     Transition Moments   XX -0.00032  XY  0.00167  XZ -0.54901
     Transition Moments   YY  0.00030  YZ -0.03488  ZZ -0.00003
     Dipole Oscillator Strength                    0.0000000006
     Electric Quadrupole                           0.0000000325
     Magnetic Dipole                               0.0000000013
     Total Oscillator Strength                     0.0000000344
 
     Occ.   19 alpha a   ---  Virt.   27 alpha a   -0.99033 X
     Occ.   19 alpha a   ---  Virt.   38 alpha a    0.09593 X
  ----------------------------------------------------------------------------
  Root  40         a              0.272511112 a.u.                7.4154 eV 
  <S2> =   1.9620
  ----------------------------------------------------------------------------
     Transition Moments    X -0.00040   Y  0.00630   Z  0.04147
     Transition Moments   XX -0.01228  XY -0.00118  XZ -0.02787
     Transition Moments   YY  0.00640  YZ  0.44055  ZZ -0.00147
     Dipole Oscillator Strength                    0.0003196041
     Electric Quadrupole                           0.0000000210
     Magnetic Dipole                               0.0000000053
     Total Oscillator Strength                     0.0003196303
 
     Occ.   19 alpha a   ---  Virt.   28 alpha a   -0.11712 X
     Occ.   20 alpha a   ---  Virt.   27 alpha a    0.12626 X
     Occ.   17 beta  a   ---  Virt.   21 beta  a   -0.05505 X
     Occ.   19 beta  a   ---  Virt.   27 beta  a    0.06732 X
     Occ.   20 beta  a   ---  Virt.   28 beta  a    0.96955 X
     Occ.   20 beta  a   ---  Virt.   30 beta  a    0.05585 X
     Occ.   20 beta  a   ---  Virt.   32 beta  a    0.07458 X
     Occ.   20 beta  a   ---  Virt.   43 beta  a    0.08100 X
 
              Target root =      1
          Target symmetry = none
      Ground state energy =   -231.646326040700
        Excitation energy =      0.106293653820
     Excited state energy =   -231.540032386879
 
  stored tddft:energy   -231.540032386879     

 Task  times  cpu:     3609.0s     wall:     3720.0s
 
 
                                NWChem Input Module
                                -------------------
 
 
 Summary of allocated global arrays
-----------------------------------
  No active global arrays



                         GA Statistics for process    0
                         ------------------------------

       create   destroy   get      put      acc     scatter   gather  read&inc
calls: 9523     9523     1.21e+07 4.03e+06 3.38e+06 5640        0      494     
number of processes/call 1.26e+00 1.75e+00 1.95e+00 0.00e+00 0.00e+00
bytes total:             1.13e+11 1.09e+10 1.07e+11 6.26e+04 0.00e+00 3.95e+03
bytes remote:            8.64e+10 1.10e+09 1.02e+11 0.00e+00 0.00e+00 0.00e+00
Max memory consumed for GA by this process: 205086464 bytes
 
MA_summarize_allocated_blocks: starting scan ...
MA_summarize_allocated_blocks: scan completed: 0 heap blocks, 0 stack blocks
MA usage statistics:

	allocation statistics:
					      heap	     stack
					      ----	     -----
	current number of blocks	         0	         0
	maximum number of blocks	        20	        52
	current total bytes		         0	         0
	maximum total bytes		   1166000	  68276408
	maximum total K-bytes		      1166	     68277
	maximum total M-bytes		         2	        69
 
 
                                     CITATION
                                     --------
                Please cite the following reference when publishing
                           results obtained with NWChem:
 
                 M. Valiev, E.J. Bylaska, N. Govind, K. Kowalski,
              T.P. Straatsma, H.J.J. van Dam, D. Wang, J. Nieplocha,
                        E. Apra, T.L. Windus, W.A. de Jong
                 "NWChem: a comprehensive and scalable open-source
                  solution for large scale molecular simulations"
                      Comput. Phys. Commun. 181, 1477 (2010)
                           doi:10.1016/j.cpc.2010.04.018
 
                                      AUTHORS
                                      -------
          E. Apra, E. J. Bylaska, W. A. de Jong, N. Govind, K. Kowalski,
       T. P. Straatsma, M. Valiev, H. J. J. van Dam, D. Wang, T. L. Windus,
        J. Hammond, J. Autschbach, K. Bhaskaran-Nair, J. Brabec, K. Lopata,
    S. A. Fischer, S. Krishnamoorthy, M. Jacquelin, W. Ma, M. Klemm, O. Villa,
      Y. Chen, V. Anisimov, F. Aquino, S. Hirata, M. T. Hackler, V. Konjkov,
            D. Mejia-Rodriguez, T. Risthaus, M. Malagoli, A. Marenich,
   A. Otero-de-la-Roza, J. Mullin, P. Nichols, R. Peverati, J. Pittner, Y. Zhao,
        P.-D. Fan, A. Fonari, M. J. Williamson, R. J. Harrison, J. R. Rehr,
      M. Dupuis, D. Silverstein, D. M. A. Smith, J. Nieplocha, V. Tipparaju,
    M. Krishnan, B. E. Van Kuiken, A. Vazquez-Mayagoitia, L. Jensen, M. Swart,
      Q. Wu, T. Van Voorhis, A. A. Auer, M. Nooijen, L. D. Crosby, E. Brown,
      G. Cisneros, G. I. Fann, H. Fruchtl, J. Garza, K. Hirao, R. A. Kendall,
      J. A. Nichols, K. Tsemekhman, K. Wolinski, J. Anchell, D. E. Bernholdt,
      P. Borowski, T. Clark, D. Clerc, H. Dachsel, M. J. O. Deegan, K. Dyall,
    D. Elwood, E. Glendening, M. Gutowski, A. C. Hess, J. Jaffe, B. G. Johnson,
     J. Ju, R. Kobayashi, R. Kutteh, Z. Lin, R. Littlefield, X. Long, B. Meng,
      T. Nakajima, S. Niu, L. Pollack, M. Rosing, K. Glaesemann, G. Sandrone,
      M. Stave, H. Taylor, G. Thomas, J. H. van Lenthe, A. T. Wong, Z. Zhang.

 Total times  cpu:     3609.0s     wall:     3720.8s
