 argument  1 = /storage/home/j/jbb5516/normalModes/mode1626.15-m.nw
 


============================== echo of input deck ==============================
echo
start

title "None"

geometry
C    -0.08555193    1.38842507    0.00000005
C    -1.26851753    0.69047249   -0.00000002
C    -1.16621494   -0.70510437   -0.00000002
C     0.08098063   -1.31611122    0.00000004
C     1.24761891   -0.55208400   -0.00000001
C     1.16935125    0.84522450    0.00000005
H    -2.23197984    1.18242841   -0.00000010
H    -2.06742088   -1.30468964   -0.00000009
H     0.15333648   -2.39522245   -0.00000000
H     2.21529293   -1.03753814   -0.00000013
H     2.06612282    1.45017065   -0.00000010
symmetry c1
end

basis spherical
 * library "aug-cc-pvtz"
end

dft
 direct
 mult 2
 iterations 500
 xc b3lyp
end

tddft
 nroots 40
 notriplet
 algorithm 1
end
task tddft energy
================================================================================


                                         
                                         
 
 
              Northwest Computational Chemistry Package (NWChem) 6.8
              ------------------------------------------------------
 
 
                    Environmental Molecular Sciences Laboratory
                       Pacific Northwest National Laboratory
                                Richland, WA 99352
 
                              Copyright (c) 1994-2017
                       Pacific Northwest National Laboratory
                            Battelle Memorial Institute
 
             NWChem is an open-source computational chemistry package
                        distributed under the terms of the
                      Educational Community License (ECL) 2.0
             A copy of the license is included with this distribution
                              in the LICENSE.TXT file
 
                                  ACKNOWLEDGMENT
                                  --------------

            This software and its documentation were developed at the
            EMSL at Pacific Northwest National Laboratory, a multiprogram
            national laboratory, operated for the U.S. Department of Energy
            by Battelle under Contract Number DE-AC05-76RL01830. Support
            for this work was provided by the Department of Energy Office
            of Biological and Environmental Research, Office of Basic
            Energy Sciences, and the Office of Advanced Scientific Computing.


           Job information
           ---------------

    hostname        = comp-sc-0084.acib.production.int.aci.ics.psu.edu
    program         = /gpfs/group/lxj18/default/jeffprograms/nwchem-6.8.1/bin/LINUX64/nwchem
    date            = Sun Sep 20 17:22:11 2020

    compiled        = Wed_Oct_03_14:08:39_2018
    source          = /gpfs/group/lxj18/default/jeffprograms/nwchem-6.8.1
    nwchem branch   = 6.8.1
    nwchem revision = v6.8-143-gdb0d964
    ga revision     = 5.6.5
    use scalapack   = F
    input           = /storage/home/j/jbb5516/normalModes/mode1626.15-m.nw
    prefix          = mode1626.15-m.
    data base       = ./mode1626.15-m.db
    status          = startup
    nproc           =       20
    time left       =     -1s



           Memory information
           ------------------

    heap     =   13107200 doubles =    100.0 Mbytes
    stack    =   13107197 doubles =    100.0 Mbytes
    global   =   26214400 doubles =    200.0 Mbytes (distinct from heap & stack)
    total    =   52428797 doubles =    400.0 Mbytes
    verify   = yes
    hardfail = no 


           Directory information
           ---------------------
 
  0 permanent = .
  0 scratch   = .
 
 
 
 
                                NWChem Input Module
                                -------------------
 
 
                                       None
                                       ----

 Scaling coordinates for geometry "geometry" by  1.889725989
 (inverse scale =  0.529177249)

 Turning off AUTOSYM since
 SYMMETRY directive was detected!
 

          ------
          auto-z
          ------
 
 
                             Geometry "geometry" -> ""
                             -------------------------
 
 Output coordinates in angstroms (scale by  1.889725989 to convert to a.u.)
 
  No.       Tag          Charge          X              Y              Z
 ---- ---------------- ---------- -------------- -------------- --------------
    1 C                    6.0000    -0.08558485     1.38842303     0.00000005
    2 C                    6.0000    -1.26855045     0.69047045    -0.00000002
    3 C                    6.0000    -1.16624786    -0.70510641    -0.00000002
    4 C                    6.0000     0.08094771    -1.31611326     0.00000004
    5 C                    6.0000     1.24758599    -0.55208604    -0.00000001
    6 C                    6.0000     1.16931833     0.84522246     0.00000005
    7 H                    1.0000    -2.23201276     1.18242637    -0.00000010
    8 H                    1.0000    -2.06745380    -1.30469168    -0.00000009
    9 H                    1.0000     0.15330356    -2.39522449    -0.00000000
   10 H                    1.0000     2.21526001    -1.03754018    -0.00000013
   11 H                    1.0000     2.06608990     1.45016861    -0.00000010
 
      Atomic Mass 
      ----------- 
 
      C                 12.000000
      H                  1.007825
 

 Effective nuclear repulsion energy (a.u.)     195.0641702890

            Nuclear Dipole moment (a.u.) 
            ----------------------------
        X                 Y               Z
 ---------------- ---------------- ----------------
    -0.0000000000    -0.0000000000     0.0000000000
 


                                Z-matrix (autoz)
                                -------- 

 Units are Angstrom for bonds and degrees for angles
 
      Type          Name      I     J     K     L     M      Value
      ----------- --------  ----- ----- ----- ----- ----- ----------
    1 Stretch                  1     2                       1.37352
    2 Stretch                  1     6                       1.36742
    3 Stretch                  2     3                       1.39932
    4 Stretch                  2     7                       1.08179
    5 Stretch                  3     4                       1.38882
    6 Stretch                  3     8                       1.08244
    7 Stretch                  4     5                       1.39455
    8 Stretch                  4     9                       1.08153
    9 Stretch                  5     6                       1.39950
   10 Stretch                  5    10                       1.08262
   11 Stretch                  6    11                       1.08174
   12 Bend                     1     2     3               116.34815
   13 Bend                     1     2     7               122.40987
   14 Bend                     1     6     5               116.61195
   15 Bend                     1     6    11               122.59112
   16 Bend                     2     1     6               126.05331
   17 Bend                     2     3     4               120.29301
   18 Bend                     2     3     8               119.44383
   19 Bend                     3     2     7               121.24199
   20 Bend                     3     4     5               120.67891
   21 Bend                     3     4     9               119.93646
   22 Bend                     4     3     8               120.26316
   23 Bend                     4     5     6               120.01468
   24 Bend                     4     5    10               120.13775
   25 Bend                     5     4     9               119.38463
   26 Bend                     5     6    11               120.79693
   27 Bend                     6     5    10               119.84757
   28 Torsion                  1     2     3     4           0.00000
   29 Torsion                  1     2     3     8        -180.00000
   30 Torsion                  1     6     5     4           0.00000
   31 Torsion                  1     6     5    10         180.00000
   32 Torsion                  2     1     6     5           0.00000
   33 Torsion                  2     1     6    11         180.00000
   34 Torsion                  2     3     4     5           0.00000
   35 Torsion                  2     3     4     9        -180.00000
   36 Torsion                  3     2     1     6           0.00000
   37 Torsion                  3     4     5     6           0.00000
   38 Torsion                  3     4     5    10        -180.00000
   39 Torsion                  4     3     2     7         180.00000
   40 Torsion                  4     5     6    11        -180.00000
   41 Torsion                  5     4     3     8         180.00000
   42 Torsion                  6     1     2     7        -180.00000
   43 Torsion                  6     5     4     9        -180.00000
   44 Torsion                  7     2     3     8           0.00000
   45 Torsion                  8     3     4     9           0.00000
   46 Torsion                  9     4     5    10           0.00000
   47 Torsion                 10     5     6    11           0.00000
 
 
            XYZ format geometry
            -------------------
    11
 geometry
 C                    -0.08558485     1.38842303     0.00000005
 C                    -1.26855045     0.69047045    -0.00000002
 C                    -1.16624786    -0.70510641    -0.00000002
 C                     0.08094771    -1.31611326     0.00000004
 C                     1.24758599    -0.55208604    -0.00000001
 C                     1.16931833     0.84522246     0.00000005
 H                    -2.23201276     1.18242637    -0.00000010
 H                    -2.06745380    -1.30469168    -0.00000009
 H                     0.15330356    -2.39522449    -0.00000000
 H                     2.21526001    -1.03754018    -0.00000013
 H                     2.06608990     1.45016861    -0.00000010
 
 ==============================================================================
                                internuclear distances
 ------------------------------------------------------------------------------
       center one      |      center two      | atomic units |  angstroms
 ------------------------------------------------------------------------------
    2 C                |   1 C                |     2.59557  |     1.37352
    3 C                |   2 C                |     2.64433  |     1.39932
    4 C                |   3 C                |     2.62449  |     1.38882
    5 C                |   4 C                |     2.63533  |     1.39455
    6 C                |   1 C                |     2.58406  |     1.36742
    6 C                |   5 C                |     2.64467  |     1.39950
    7 H                |   2 C                |     2.04430  |     1.08179
    8 H                |   3 C                |     2.04551  |     1.08244
    9 H                |   4 C                |     2.04380  |     1.08153
   10 H                |   5 C                |     2.04585  |     1.08262
   11 H                |   6 C                |     2.04419  |     1.08174
 ------------------------------------------------------------------------------
                         number of included internuclear distances:         11
 ==============================================================================



 ==============================================================================
                                 internuclear angles
 ------------------------------------------------------------------------------
        center 1       |       center 2       |       center 3       |  degrees
 ------------------------------------------------------------------------------
    2 C                |   1 C                |   6 C                |   126.05
    1 C                |   2 C                |   3 C                |   116.35
    1 C                |   2 C                |   7 H                |   122.41
    3 C                |   2 C                |   7 H                |   121.24
    2 C                |   3 C                |   4 C                |   120.29
    2 C                |   3 C                |   8 H                |   119.44
    4 C                |   3 C                |   8 H                |   120.26
    3 C                |   4 C                |   5 C                |   120.68
    3 C                |   4 C                |   9 H                |   119.94
    5 C                |   4 C                |   9 H                |   119.38
    4 C                |   5 C                |   6 C                |   120.01
    4 C                |   5 C                |  10 H                |   120.14
    6 C                |   5 C                |  10 H                |   119.85
    1 C                |   6 C                |   5 C                |   116.61
    1 C                |   6 C                |  11 H                |   122.59
    5 C                |   6 C                |  11 H                |   120.80
 ------------------------------------------------------------------------------
                            number of included internuclear angles:         16
 ==============================================================================





 Summary of "ao basis" -> "" (spherical)
 ------------------------------------------------------------------------------
       Tag                 Description            Shells   Functions and Types
 ---------------- ------------------------------  ------  ---------------------
 *                        aug-cc-pvtz                 on all atoms 


 
                                 NWChem DFT Module
                                 -----------------
 
 
                                       None
 
 
                      Basis "ao basis" -> "ao basis" (spherical)
                      -----
  C (Carbon)
  ----------
            Exponent  Coefficients 
       -------------- ---------------------------------------------------------
  1 S  8.23600000E+03  0.000531
  1 S  1.23500000E+03  0.004108
  1 S  2.80800000E+02  0.021087
  1 S  7.92700000E+01  0.081853
  1 S  2.55900000E+01  0.234817
  1 S  8.99700000E+00  0.434401
  1 S  3.31900000E+00  0.346129
  1 S  3.64300000E-01 -0.008983
 
  2 S  8.23600000E+03 -0.000113
  2 S  1.23500000E+03 -0.000878
  2 S  2.80800000E+02 -0.004540
  2 S  7.92700000E+01 -0.018133
  2 S  2.55900000E+01 -0.055760
  2 S  8.99700000E+00 -0.126895
  2 S  3.31900000E+00 -0.170352
  2 S  3.64300000E-01  0.598684
 
  3 S  9.05900000E-01  1.000000
 
  4 S  1.28500000E-01  1.000000
 
  5 S  4.40200000E-02  1.000000
 
  6 P  1.87100000E+01  0.014031
  6 P  4.13300000E+00  0.086866
  6 P  1.20000000E+00  0.290216
 
  7 P  3.82700000E-01  1.000000
 
  8 P  1.20900000E-01  1.000000
 
  9 P  3.56900000E-02  1.000000
 
 10 D  1.09700000E+00  1.000000
 
 11 D  3.18000000E-01  1.000000
 
 12 D  1.00000000E-01  1.000000
 
 13 F  7.61000000E-01  1.000000
 
 14 F  2.68000000E-01  1.000000
 
  H (Hydrogen)
  ------------
            Exponent  Coefficients 
       -------------- ---------------------------------------------------------
  1 S  3.38700000E+01  0.006068
  1 S  5.09500000E+00  0.045308
  1 S  1.15900000E+00  0.202822
 
  2 S  3.25800000E-01  1.000000
 
  3 S  1.02700000E-01  1.000000
 
  4 S  2.52600000E-02  1.000000
 
  5 P  1.40700000E+00  1.000000
 
  6 P  3.88000000E-01  1.000000
 
  7 P  1.02000000E-01  1.000000
 
  8 D  1.05700000E+00  1.000000
 
  9 D  2.47000000E-01  1.000000
 


 Summary of "ao basis" -> "ao basis" (spherical)
 ------------------------------------------------------------------------------
       Tag                 Description            Shells   Functions and Types
 ---------------- ------------------------------  ------  ---------------------
 C                        aug-cc-pvtz               14       46   5s4p3d2f
 H                        aug-cc-pvtz                9       23   4s3p2d




 Summary of "ao basis" -> "ao basis" (spherical)
 ------------------------------------------------------------------------------
       Tag                 Description            Shells   Functions and Types
 ---------------- ------------------------------  ------  ---------------------
 C                        aug-cc-pvtz               14       46   5s4p3d2f
 H                        aug-cc-pvtz                9       23   4s3p2d


  Caching 1-el integrals 
 
            General Information
            -------------------
          SCF calculation type: DFT
          Wavefunction type:  spin polarized.
          No. of atoms     :    11
          No. of electrons :    41
           Alpha electrons :    21
            Beta electrons :    20
          Charge           :     0
          Spin multiplicity:     2
          Use of symmetry is: off; symmetry adaption is: off
          Maximum number of iterations: 500
          This is a Direct SCF calculation.
          AO basis - number of functions:   391
                     number of shells:   129
          Convergence on energy requested:  1.00D-06
          Convergence on density requested:  1.00D-05
          Convergence on gradient requested:  5.00D-04
 
              XC Information
              --------------
                         B3LYP Method XC Potential
                     Hartree-Fock (Exact) Exchange  0.200          
                        Slater Exchange Functional  0.800 local    
                    Becke 1988 Exchange Functional  0.720 non-local
              Lee-Yang-Parr Correlation Functional  0.810          
                  VWN I RPA Correlation Functional  0.190 local    
 
             Grid Information
             ----------------
          Grid used for XC integration:  medium    
          Radial quadrature: Mura-Knowles        
          Angular quadrature: Lebedev. 
          Tag              B.-S. Rad. Rad. Pts. Rad. Cut. Ang. Pts.
          ---              ---------- --------- --------- ---------
          C                   0.70       49          15.0       434
          H                   0.35       45          17.0       434
          Grid pruning is: on 
          Number of quadrature shells:   519
          Spatial weights used:  Erf1
 
          Convergence Information
          -----------------------
          Convergence aids based upon iterative change in 
          total energy or number of iterations. 
          Levelshifting, if invoked, occurs when the 
          HOMO/LUMO gap drops below (HL_TOL):  1.00D-02
          DIIS, if invoked, will attempt to extrapolate 
          using up to (NFOCK): 10 stored Fock matrices.

                    Damping( 0%)  Levelshifting(0.5)       DIIS
                  --------------- ------------------- ---------------
          dE  on:    start            ASAP                start   
          dE off:    2 iters        500 iters           500 iters 

 
      Screening Tolerance Information
      -------------------------------
          Density screening/tol_rho:  1.00D-10
          AO Gaussian exp screening on grid/accAOfunc:  14
          CD Gaussian exp screening on grid/accCDfunc:  20
          XC Gaussian exp screening on grid/accXCfunc:  20
          Schwarz screening/accCoul:  1.00D-08

 
 WARNING : Found     7 linear dependencies 
 S eigenvalue threshold:     1.00000E-05
 Smallest S eigenvalue :     1.46351E-06
 Largest  S eigenvalue :     7.76673E-06
 

 !! The overlap matrix has   7 vectors deemed linearly dependent with
    eigenvalues:
 1.46D-06 2.24D-06 2.83D-06 3.54D-06 5.27D-06 5.95D-06 7.77D-06
 
 
      Superposition of Atomic Density Guess
      -------------------------------------
 
 Sum of atomic energies:        -228.52307259
 
      Non-variational initial energy
      ------------------------------

 Total energy =    -232.667237
 1-e energy   =    -691.328759
 2-e energy   =     263.597352
 HOMO         =      -0.183325
 LUMO         =      -0.022300
 
   Time after variat. SCF:      8.9
   Time prior to 1st pass:      8.9

 Grid_pts file          = ./mode1626.15-m.gridpts.00
 Record size in doubles =  12289        No. of grid_pts per rec  =   3070
 Max. records in memory =      6        Max. recs in file   = 220725960

 Grid integrated density:      40.999764117388
 Requested integration accuracy:   0.10E-05

           Memory utilization after 1st SCF pass: 
           Heap Space remaining (MW):       12.96            12961280
          Stack Space remaining (MW):       13.10            13103676

   convergence    iter        energy       DeltaE   RMS-Dens  Diis-err    time
 ---------------- ----- ----------------- --------- --------- ---------  ------
 d= 0,ls=0.0,diis     1   -231.5820196774 -4.27D+02  6.37D-02  2.09D-01    19.7
                                                     7.17D-02  1.96D-01
 d= 0,ls=0.0,diis     2   -231.6397315646 -5.77D-02  6.27D-02  1.23D-02    30.4
                                                     7.06D-02  1.26D-02
 d= 0,ls=0.0,diis     3   -231.6445783624 -4.85D-03  1.30D-03  3.44D-03    41.2
                                                     1.41D-03  3.50D-03
 d= 0,ls=0.0,diis     4   -231.6457274527 -1.15D-03  2.06D-04  1.15D-03    52.0
                                                     2.11D-04  1.08D-03
 d= 0,ls=0.0,diis     5   -231.6462548160 -5.27D-04  3.44D-05  4.28D-05    62.8
                                                     3.18D-05  4.89D-05
  Resetting Diis
 d= 0,ls=0.0,diis     6   -231.6462828930 -2.81D-05  1.12D-05  7.73D-06    73.6
                                                     1.07D-05  6.21D-06
 d= 0,ls=0.0,diis     7   -231.6462890621 -6.17D-06  7.28D-06  2.10D-06    84.4
                                                     6.49D-06  2.38D-06
 d= 0,ls=0.0,diis     8   -231.6462901853 -1.12D-06  3.03D-06  5.37D-06    95.2
                                                     2.68D-06  4.72D-06
 d= 0,ls=0.0,diis     9   -231.6462934111 -3.23D-06  3.69D-06  3.86D-07   106.0
                                                     3.26D-06  3.29D-07
 d= 0,ls=0.0,diis    10   -231.6462947007 -1.29D-06  2.18D-06  1.93D-07   116.8
                                                     2.49D-06  2.92D-07
 d= 0,ls=0.0,diis    11   -231.6462951468 -4.46D-07  5.95D-07  1.15D-08   127.6
                                                     5.17D-07  9.02D-09


         Total DFT energy =     -231.646295146757
      One electron energy =     -696.561235228134
           Coulomb energy =      304.259969723973
    Exchange-Corr. energy =      -34.409199931640
 Nuclear repulsion energy =      195.064170289044

 Numeric. integr. density =       40.999984409247

     Total iterative time =    118.7s


 
                    DFT Final Alpha Molecular Orbital Analysis
                    ------------------------------------------
 
 Vector    1  Occ=1.000000D+00  E=-1.020525D+01
              MO Center= -8.6D-02,  1.4D+00,  4.8D-08, r^2= 3.0D-02
   Bfn.  Coefficient  Atom+Function         Bfn.  Coefficient  Atom+Function  
  ----- ------------  ---------------      ----- ------------  ---------------
     1      0.984164   1 C  s                 3      0.058856   1 C  s         
   234     -0.038782   6 C  s                50     -0.037993   2 C  s         
   279      0.038086   7 H  s               143      0.037869   4 C  s         
   371      0.037775  11 H  s               235     -0.031506   6 C  s         
    51     -0.029806   2 C  s                47      0.025349   2 C  s         
 
 Vector    2  Occ=1.000000D+00  E=-1.019206D+01
              MO Center=  1.2D+00, -5.2D-01, -1.4D-08, r^2= 7.4D-02
   Bfn.  Coefficient  Atom+Function         Bfn.  Coefficient  Atom+Function  
  ----- ------------  ---------------      ----- ------------  ---------------
   185      0.974735   5 C  s               231      0.144409   6 C  s         
   142     -0.069061   4 C  s               348      0.058729  10 H  s         
   187      0.057941   5 C  s                50      0.054668   2 C  s         
   279     -0.043979   7 H  s                51      0.043225   2 C  s         
   139      0.041010   4 C  s               325      0.038041   9 H  s         
 
 Vector    3  Occ=1.000000D+00  E=-1.019159D+01
              MO Center= -1.2D+00, -5.5D-01, -2.4D-08, r^2= 2.3D-01
   Bfn.  Coefficient  Atom+Function         Bfn.  Coefficient  Atom+Function  
  ----- ------------  ---------------      ----- ------------  ---------------
    93      0.929869   3 C  s                47      0.327519   2 C  s         
   142     -0.071741   4 C  s               302      0.061201   8 H  s         
    95      0.055913   3 C  s               234      0.052947   6 C  s         
   371     -0.043978  11 H  s               235      0.042607   6 C  s         
   139      0.041910   4 C  s                97     -0.040592   3 C  s         
 
 Vector    4  Occ=1.000000D+00  E=-1.019064D+01
              MO Center= -1.3D+00,  5.4D-01, -2.4D-08, r^2= 2.2D-01
   Bfn.  Coefficient  Atom+Function         Bfn.  Coefficient  Atom+Function  
  ----- ------------  ---------------      ----- ------------  ---------------
    47      0.929560   2 C  s                93     -0.324260   3 C  s         
   279      0.055483   7 H  s                49      0.053698   2 C  s         
   189      0.036904   5 C  s               188      0.036694   5 C  s         
   143      0.034693   4 C  s                12      0.029469   1 C  px        
   325     -0.028851   9 H  s                96     -0.027927   3 C  s         
 
 Vector    5  Occ=1.000000D+00  E=-1.019001D+01
              MO Center=  1.2D+00,  8.2D-01,  4.7D-08, r^2= 7.1D-02
   Bfn.  Coefficient  Atom+Function         Bfn.  Coefficient  Atom+Function  
  ----- ------------  ---------------      ----- ------------  ---------------
   231      0.974829   6 C  s               185     -0.141852   5 C  s         
   371      0.059758  11 H  s               233      0.056935   6 C  s         
    97      0.040853   3 C  s                96      0.034419   3 C  s         
   189     -0.033491   5 C  s               235     -0.031979   6 C  s         
    12     -0.031630   1 C  px              142     -0.031252   4 C  s         
 
 Vector    6  Occ=1.000000D+00  E=-1.018432D+01
              MO Center=  8.0D-02, -1.3D+00,  3.9D-08, r^2= 3.5D-02
   Bfn.  Coefficient  Atom+Function         Bfn.  Coefficient  Atom+Function  
  ----- ------------  ---------------      ----- ------------  ---------------
   139      0.984273   4 C  s               141      0.057791   4 C  s         
    96     -0.045914   3 C  s               188     -0.045862   5 C  s         
   325      0.045998   9 H  s               143     -0.043492   4 C  s         
    93     -0.042063   3 C  s                 4      0.040387   1 C  s         
   185     -0.037518   5 C  s               151      0.036048   4 C  py        
 
 Vector    7  Occ=1.000000D+00  E=-8.724623D-01
              MO Center= -5.2D-03,  9.9D-02,  4.9D-09, r^2= 2.0D+00
   Bfn.  Coefficient  Atom+Function         Bfn.  Coefficient  Atom+Function  
  ----- ------------  ---------------      ----- ------------  ---------------
     2      0.214067   1 C  s               232      0.203418   6 C  s         
    48      0.201907   2 C  s                94      0.196091   3 C  s         
   186      0.195083   5 C  s               140      0.188217   4 C  s         
   234      0.091913   6 C  s                50      0.088620   2 C  s         
   188      0.088463   5 C  s                96      0.087653   3 C  s         
 
 Vector    8  Occ=1.000000D+00  E=-7.627688D-01
              MO Center= -7.7D-03,  9.9D-02,  1.3D-09, r^2= 2.8D+00
   Bfn.  Coefficient  Atom+Function         Bfn.  Coefficient  Atom+Function  
  ----- ------------  ---------------      ----- ------------  ---------------
   232     -0.259581   6 C  s                94      0.252984   3 C  s         
    48      0.241166   2 C  s               186     -0.233694   5 C  s         
   234     -0.149372   6 C  s                50      0.142199   2 C  s         
   371      0.133452  11 H  s               279     -0.124735   7 H  s         
   150     -0.115082   4 C  px               97      0.110730   3 C  s         
 
 Vector    9  Occ=1.000000D+00  E=-7.536991D-01
              MO Center=  9.2D-03, -1.5D-01, -2.6D-08, r^2= 2.6D+00
   Bfn.  Coefficient  Atom+Function         Bfn.  Coefficient  Atom+Function  
  ----- ------------  ---------------      ----- ------------  ---------------
   140     -0.300300   4 C  s                 2      0.277971   1 C  s         
    48      0.163388   2 C  s               186     -0.163923   5 C  s         
   142     -0.147262   4 C  s                94     -0.133193   3 C  s         
   232      0.132080   6 C  s               188     -0.112129   5 C  s         
    50      0.106063   2 C  s                 4      0.102946   1 C  s         
 
 Vector   10  Occ=1.000000D+00  E=-6.187531D-01
              MO Center=  3.3D-03,  4.0D-02, -1.0D-08, r^2= 3.6D+00
   Bfn.  Coefficient  Atom+Function         Bfn.  Coefficient  Atom+Function  
  ----- ------------  ---------------      ----- ------------  ---------------
   186      0.212732   5 C  s                94     -0.204235   3 C  s         
    48      0.202822   2 C  s               232     -0.195932   6 C  s         
    50      0.188143   2 C  s               234     -0.178580   6 C  s         
   188      0.151879   5 C  s                96     -0.141984   3 C  s         
     6     -0.127270   1 C  px              144      0.116852   4 C  px        
 
 Vector   11  Occ=1.000000D+00  E=-6.035373D-01
              MO Center=  2.0D-03, -8.7D-02, -3.1D-08, r^2= 3.5D+00
   Bfn.  Coefficient  Atom+Function         Bfn.  Coefficient  Atom+Function  
  ----- ------------  ---------------      ----- ------------  ---------------
   142      0.258170   4 C  s                 2      0.238834   1 C  s         
   140      0.218670   4 C  s                 4      0.198598   1 C  s         
    94     -0.143995   3 C  s               186     -0.132570   5 C  s         
   234     -0.126642   6 C  s                96     -0.122546   3 C  s         
    50     -0.118517   2 C  s               188     -0.115817   5 C  s         
 
 Vector   12  Occ=1.000000D+00  E=-5.277273D-01
              MO Center=  6.4D-03, -1.5D-01, -1.1D-08, r^2= 4.1D+00
   Bfn.  Coefficient  Atom+Function         Bfn.  Coefficient  Atom+Function  
  ----- ------------  ---------------      ----- ------------  ---------------
   148      0.159242   4 C  py              145      0.138809   4 C  py        
   324     -0.126839   9 H  s                55      0.105583   2 C  px        
   240     -0.105341   6 C  py              323     -0.100377   9 H  s         
   237     -0.096469   6 C  py              278     -0.094752   7 H  s         
   370     -0.094210  11 H  s                10     -0.093667   1 C  py        
 
 Vector   13  Occ=1.000000D+00  E=-4.646682D-01
              MO Center=  7.6D-02,  8.9D-02,  4.7D-09, r^2= 2.9D+00
   Bfn.  Coefficient  Atom+Function         Bfn.  Coefficient  Atom+Function  
  ----- ------------  ---------------      ----- ------------  ---------------
     9      0.181090   1 C  px                6      0.168086   1 C  px        
   147      0.165718   4 C  px              239     -0.158963   6 C  px        
   144      0.152857   4 C  px              101     -0.148978   3 C  px        
   194     -0.146782   5 C  py              236     -0.143670   6 C  px        
    98     -0.132236   3 C  px              191     -0.131047   5 C  py        
 
 Vector   14  Occ=1.000000D+00  E=-4.630221D-01
              MO Center= -7.1D-02, -1.4D-01, -4.8D-08, r^2= 4.6D+00
   Bfn.  Coefficient  Atom+Function         Bfn.  Coefficient  Atom+Function  
  ----- ------------  ---------------      ----- ------------  ---------------
     2      0.169456   1 C  s               193      0.153127   5 C  px        
   190      0.140164   5 C  px              347      0.137659  10 H  s         
    55      0.128837   2 C  px              196      0.125520   5 C  px        
   140     -0.123774   4 C  s               301      0.124012   8 H  s         
    52      0.120879   2 C  px               96      0.119062   3 C  s         
 
 Vector   15  Occ=1.000000D+00  E=-4.399773D-01
              MO Center= -9.6D-03,  2.1D-01, -2.5D-08, r^2= 4.0D+00
   Bfn.  Coefficient  Atom+Function         Bfn.  Coefficient  Atom+Function  
  ----- ------------  ---------------      ----- ------------  ---------------
   240      0.144515   6 C  py              102      0.139372   3 C  py        
   237      0.133425   6 C  py              370      0.132385  11 H  s         
    99      0.130346   3 C  py              278     -0.130502   7 H  s         
    55      0.128440   2 C  px               56     -0.128345   2 C  py        
   194     -0.126937   5 C  py              191     -0.119891   5 C  py        
 
 Vector   16  Occ=1.000000D+00  E=-3.990627D-01
              MO Center=  4.3D-02, -7.8D-01, -1.0D-08, r^2= 3.3D+00
   Bfn.  Coefficient  Atom+Function         Bfn.  Coefficient  Atom+Function  
  ----- ------------  ---------------      ----- ------------  ---------------
   148      0.233299   4 C  py              145      0.208992   4 C  py        
   324     -0.198546   9 H  s               151      0.172529   4 C  py        
   323     -0.153992   9 H  s                10      0.138844   1 C  py        
    13      0.121113   1 C  py              240      0.115403   6 C  py        
   194     -0.108727   5 C  py                7      0.108141   1 C  py        
 
 Vector   17  Occ=1.000000D+00  E=-3.837029D-01
              MO Center= -6.9D-03,  1.2D-01, -5.8D-08, r^2= 2.7D+00
   Bfn.  Coefficient  Atom+Function         Bfn.  Coefficient  Atom+Function  
  ----- ------------  ---------------      ----- ------------  ---------------
    11      0.173453   1 C  pz               57      0.156047   2 C  pz        
   241      0.156760   6 C  pz              103      0.152477   3 C  pz        
   195      0.151972   5 C  pz              149      0.145893   4 C  pz        
     8      0.136826   1 C  pz              238      0.126103   6 C  pz        
    54      0.125454   2 C  pz              100      0.121942   3 C  pz        
 
 Vector   18  Occ=1.000000D+00  E=-3.659737D-01
              MO Center=  1.0D-02, -1.4D-01, -2.7D-08, r^2= 4.1D+00
   Bfn.  Coefficient  Atom+Function         Bfn.  Coefficient  Atom+Function  
  ----- ------------  ---------------      ----- ------------  ---------------
   147     -0.168993   4 C  px              193      0.166088   5 C  px        
   101      0.163870   3 C  px              144     -0.159591   4 C  px        
     9      0.149685   1 C  px              190      0.150034   5 C  px        
    98      0.148277   3 C  px                6      0.141798   1 C  px        
   196      0.135713   5 C  px              104      0.133241   3 C  px        
 
 Vector   19  Occ=1.000000D+00  E=-2.688407D-01
              MO Center= -3.7D-02,  1.9D-03,  1.4D-07, r^2= 3.0D+00
   Bfn.  Coefficient  Atom+Function         Bfn.  Coefficient  Atom+Function  
  ----- ------------  ---------------      ----- ------------  ---------------
    11      0.212437   1 C  pz              103     -0.213409   3 C  pz        
   149     -0.206605   4 C  pz              241      0.201445   6 C  pz        
   100     -0.170318   3 C  pz                8      0.167085   1 C  pz        
   146     -0.165183   4 C  pz              238      0.161003   6 C  pz        
    14      0.152494   1 C  pz              106     -0.151723   3 C  pz        
 
 Vector   20  Occ=1.000000D+00  E=-2.675459D-01
              MO Center=  3.4D-02,  4.4D-02,  2.2D-07, r^2= 3.1D+00
   Bfn.  Coefficient  Atom+Function         Bfn.  Coefficient  Atom+Function  
  ----- ------------  ---------------      ----- ------------  ---------------
   195     -0.243090   5 C  pz               57      0.234138   2 C  pz        
   192     -0.193830   5 C  pz               54      0.187288   2 C  pz        
   198     -0.174649   5 C  pz               60      0.168875   2 C  pz        
    11      0.122646   1 C  pz              149     -0.119260   4 C  pz        
   241     -0.118492   6 C  pz              103      0.115990   3 C  pz        
 
 Vector   21  Occ=1.000000D+00  E=-2.484145D-01
              MO Center= -7.7D-02,  1.3D+00,  8.5D-08, r^2= 2.3D+00
   Bfn.  Coefficient  Atom+Function         Bfn.  Coefficient  Atom+Function  
  ----- ------------  ---------------      ----- ------------  ---------------
    10      0.386025   1 C  py               13      0.337747   1 C  py        
     5      0.335240   1 C  s                 7      0.299378   1 C  py        
     4      0.279333   1 C  s                 2      0.138345   1 C  s         
   243     -0.135984   6 C  py               59     -0.134522   2 C  py        
   194      0.112878   5 C  py              102      0.112025   3 C  py        
 
 Vector   22  Occ=0.000000D+00  E=-2.606775D-02
              MO Center= -5.2D-03,  6.7D-02, -9.8D-07, r^2= 4.3D+00
   Bfn.  Coefficient  Atom+Function         Bfn.  Coefficient  Atom+Function  
  ----- ------------  ---------------      ----- ------------  ---------------
   201      0.336391   5 C  pz               63      0.329194   2 C  pz        
   109     -0.300548   3 C  pz              247     -0.296894   6 C  pz        
    60      0.236950   2 C  pz              198      0.234310   5 C  pz        
    57      0.228751   2 C  pz              195      0.227641   5 C  pz        
   244     -0.215051   6 C  pz              106     -0.211256   3 C  pz        
 
 Vector   23  Occ=0.000000D+00  E=-1.855112D-02
              MO Center=  3.8D-03, -4.9D-02, -4.0D-06, r^2= 4.3D+00
   Bfn.  Coefficient  Atom+Function         Bfn.  Coefficient  Atom+Function  
  ----- ------------  ---------------      ----- ------------  ---------------
   155      0.438386   4 C  pz               17      0.372482   1 C  pz        
   152      0.272966   4 C  pz               11      0.257903   1 C  pz        
   109     -0.258040   3 C  pz              149      0.249751   4 C  pz        
    14      0.239589   1 C  pz              247     -0.229695   6 C  pz        
     8      0.199804   1 C  pz              146      0.197431   4 C  pz        
 
 Vector   24  Occ=0.000000D+00  E=-1.011022D-02
              MO Center=  6.6D-02, -9.5D-01, -1.6D-06, r^2= 2.0D+01
   Bfn.  Coefficient  Atom+Function         Bfn.  Coefficient  Atom+Function  
  ----- ------------  ---------------      ----- ------------  ---------------
     5      1.446531   1 C  s               279     -0.982448   7 H  s         
   371     -0.970416  11 H  s               326     -0.741602   9 H  s         
   349     -0.734410  10 H  s               303     -0.726188   8 H  s         
   348     -0.655078  10 H  s               302     -0.645328   8 H  s         
   325     -0.588275   9 H  s               235      0.571082   6 C  s         
 
 Vector   25  Occ=0.000000D+00  E= 4.382044D-03
              MO Center=  1.1D-02, -2.6D-01, -7.0D-06, r^2= 2.7D+01
   Bfn.  Coefficient  Atom+Function         Bfn.  Coefficient  Atom+Function  
  ----- ------------  ---------------      ----- ------------  ---------------
    51      2.738322   2 C  s               235     -2.724687   6 C  s         
   189     -2.680747   5 C  s                97      2.665320   3 C  s         
   303      1.997854   8 H  s               349     -1.995871  10 H  s         
    15      1.866835   1 C  px              153      1.807417   4 C  px        
   280      1.540320   7 H  s               372     -1.539504  11 H  s         
 
 Vector   26  Occ=0.000000D+00  E= 8.729127D-03
              MO Center=  8.3D-03, -7.3D-02,  6.3D-05, r^2= 2.7D+01
   Bfn.  Coefficient  Atom+Function         Bfn.  Coefficient  Atom+Function  
  ----- ------------  ---------------      ----- ------------  ---------------
   143      6.244299   4 C  s                51     -4.026144   2 C  s         
   235     -3.991888   6 C  s               326      2.932186   9 H  s         
     5      2.588526   1 C  s               280     -2.390772   7 H  s         
   372     -2.385702  11 H  s               246      1.964181   6 C  py        
   154      1.949825   4 C  py               62      1.796471   2 C  py        
 
 Vector   27  Occ=0.000000D+00  E= 2.670552D-02
              MO Center= -2.3D-02,  2.4D-01, -1.0D-05, r^2= 3.1D+01
   Bfn.  Coefficient  Atom+Function         Bfn.  Coefficient  Atom+Function  
  ----- ------------  ---------------      ----- ------------  ---------------
   280      3.934747   7 H  s               372     -3.929623  11 H  s         
    51      3.661308   2 C  s               235     -3.656566   6 C  s         
   303     -3.606734   8 H  s               349      3.596897  10 H  s         
    61      2.227320   2 C  px              189      2.201985   5 C  s         
    97     -2.181210   3 C  s               199     -2.035560   5 C  px        
 
 Vector   28  Occ=0.000000D+00  E= 3.221628D-02
              MO Center=  4.5D-02, -6.2D-01, -1.1D-04, r^2= 2.9D+01
   Bfn.  Coefficient  Atom+Function         Bfn.  Coefficient  Atom+Function  
  ----- ------------  ---------------      ----- ------------  ---------------
     5      6.395832   1 C  s               326     -4.998419   9 H  s         
   303      3.720545   8 H  s               349      3.730627  10 H  s         
   189     -2.225391   5 C  s               154     -2.173916   4 C  py        
    97     -2.133470   3 C  s               199     -1.629884   5 C  px        
   245      1.622351   6 C  px               61     -1.589574   2 C  px        
 
 Vector   29  Occ=0.000000D+00  E= 4.329459D-02
              MO Center=  1.5D-02, -2.2D-01,  7.4D-06, r^2= 1.3D+01
   Bfn.  Coefficient  Atom+Function         Bfn.  Coefficient  Atom+Function  
  ----- ------------  ---------------      ----- ------------  ---------------
   155      0.598780   4 C  pz               63      0.576168   2 C  pz        
   247      0.576692   6 C  pz               17     -0.260497   1 C  pz        
    60     -0.155678   2 C  pz              244     -0.154122   6 C  pz        
   289     -0.124546   7 H  pz              381     -0.122474  11 H  pz        
   259      0.119537   6 C  d -1             77      0.110958   2 C  d  1      
 
 Vector   30  Occ=0.000000D+00  E= 5.496271D-02
              MO Center=  1.3D-02, -1.5D-01, -3.9D-05, r^2= 1.5D+01
   Bfn.  Coefficient  Atom+Function         Bfn.  Coefficient  Atom+Function  
  ----- ------------  ---------------      ----- ------------  ---------------
     5     10.707270   1 C  s               143      5.282524   4 C  s         
    51     -4.481337   2 C  s               235     -4.494756   6 C  s         
   349     -2.820123  10 H  s               303     -2.781816   8 H  s         
   326      2.060399   9 H  s               199      2.049304   5 C  px        
   189     -1.980816   5 C  s                97     -1.921369   3 C  s         
 
 Vector   31  Occ=0.000000D+00  E= 6.334998D-02
              MO Center= -4.2D-02,  6.5D-01, -1.1D-04, r^2= 2.8D+01
   Bfn.  Coefficient  Atom+Function         Bfn.  Coefficient  Atom+Function  
  ----- ------------  ---------------      ----- ------------  ---------------
     5     24.374653   1 C  s                51     -9.925849   2 C  s         
   235     -9.774620   6 C  s               143      7.618117   4 C  s         
   189     -6.618472   5 C  s                97     -6.402897   3 C  s         
   326      5.864923   9 H  s               154      4.780296   4 C  py        
   303     -4.671502   8 H  s               349     -4.693371  10 H  s         
 
 Vector   32  Occ=0.000000D+00  E= 6.574589D-02
              MO Center=  3.8D-04, -2.5D-02,  5.3D-04, r^2= 1.8D+01
   Bfn.  Coefficient  Atom+Function         Bfn.  Coefficient  Atom+Function  
  ----- ------------  ---------------      ----- ------------  ---------------
   201     -0.983826   5 C  pz              109      0.969327   3 C  pz        
    63      0.777847   2 C  pz              247     -0.762689   6 C  pz        
   169     -0.677427   4 C  d  1             31     -0.583423   1 C  d  1      
   106      0.499398   3 C  pz              244     -0.493886   6 C  pz        
   198     -0.485521   5 C  pz               60      0.482875   2 C  pz        
 
 Vector   33  Occ=0.000000D+00  E= 6.826303D-02
              MO Center= -1.2D-02,  1.9D-01, -2.9D-04, r^2= 1.8D+01
   Bfn.  Coefficient  Atom+Function         Bfn.  Coefficient  Atom+Function  
  ----- ------------  ---------------      ----- ------------  ---------------
    63      1.022559   2 C  pz              247      1.026008   6 C  pz        
   109     -0.813590   3 C  pz              201     -0.810192   5 C  pz        
   155     -0.750734   4 C  pz               14      0.629572   1 C  pz        
   152     -0.617671   4 C  pz               17      0.458680   1 C  pz        
   213     -0.448169   5 C  d -1            121     -0.406856   3 C  d -1      
 
 Vector   34  Occ=0.000000D+00  E= 7.645725D-02
              MO Center=  2.9D-02, -1.6D-01, -1.2D-04, r^2= 3.4D+01
   Bfn.  Coefficient  Atom+Function         Bfn.  Coefficient  Atom+Function  
  ----- ------------  ---------------      ----- ------------  ---------------
    51     13.995492   2 C  s               235    -13.730406   6 C  s         
   189    -12.461141   5 C  s                97     12.369230   3 C  s         
    15      7.677938   1 C  px              153      7.710984   4 C  px        
   107      4.778881   3 C  px              349     -4.705212  10 H  s         
   303      4.679777   8 H  s               199      4.455185   5 C  px        
 
 Vector   35  Occ=0.000000D+00  E= 7.792089D-02
              MO Center=  2.1D-01, -3.3D+00,  1.4D-04, r^2= 2.1D+01
   Bfn.  Coefficient  Atom+Function         Bfn.  Coefficient  Atom+Function  
  ----- ------------  ---------------      ----- ------------  ---------------
   143     18.266775   4 C  s               235    -13.618981   6 C  s         
    51    -13.262178   2 C  s               326      7.025237   9 H  s         
   246      5.770192   6 C  py               62      5.556370   2 C  py        
   200      5.548345   5 C  py              154      5.281492   4 C  py        
   108      4.889337   3 C  py              279      4.264677   7 H  s         
 
 Vector   36  Occ=0.000000D+00  E= 8.155334D-02
              MO Center= -9.7D-02,  1.4D+00,  8.5D-05, r^2= 2.8D+01
   Bfn.  Coefficient  Atom+Function         Bfn.  Coefficient  Atom+Function  
  ----- ------------  ---------------      ----- ------------  ---------------
   143     20.712707   4 C  s                51     -9.113059   2 C  s         
   235     -8.783089   6 C  s               246      5.329240   6 C  py        
    62      5.090319   2 C  py              325     -4.965417   9 H  s         
   280     -4.601823   7 H  s               200      4.523100   5 C  py        
   372     -4.528192  11 H  s               326      4.501662   9 H  s         
 
 Vector   37  Occ=0.000000D+00  E= 8.317330D-02
              MO Center=  2.9D-02, -7.3D-01, -1.1D-05, r^2= 2.2D+01
   Bfn.  Coefficient  Atom+Function         Bfn.  Coefficient  Atom+Function  
  ----- ------------  ---------------      ----- ------------  ---------------
   189     -4.998961   5 C  s                97      4.887428   3 C  s         
    51     -3.172775   2 C  s               235      3.087599   6 C  s         
   303      2.821678   8 H  s               108      2.798169   3 C  py        
   349     -2.784891  10 H  s               200     -2.678410   5 C  py        
   153      2.603169   4 C  px               96      2.115600   3 C  s         
 
 Vector   38  Occ=0.000000D+00  E= 9.540294D-02
              MO Center= -6.2D-02,  8.8D-01,  9.9D-06, r^2= 3.1D+01
   Bfn.  Coefficient  Atom+Function         Bfn.  Coefficient  Atom+Function  
  ----- ------------  ---------------      ----- ------------  ---------------
    51     17.674268   2 C  s               235    -17.685906   6 C  s         
   280      7.216466   7 H  s               372     -7.218814  11 H  s         
   189      6.936279   5 C  s                97     -6.888676   3 C  s         
   108     -6.452840   3 C  py              303     -6.214952   8 H  s         
   349      6.187725  10 H  s               200      5.928150   5 C  py        
 
 Vector   39  Occ=0.000000D+00  E= 1.017995D-01
              MO Center= -1.7D-02,  1.1D-01, -3.3D-04, r^2= 1.9D+01
   Bfn.  Coefficient  Atom+Function         Bfn.  Coefficient  Atom+Function  
  ----- ------------  ---------------      ----- ------------  ---------------
    51     13.823956   2 C  s               235    -13.641678   6 C  s         
   189    -10.970932   5 C  s                97     10.807074   3 C  s         
    15      9.998087   1 C  px              153      9.715272   4 C  px        
   246     -6.141383   6 C  py              108     -6.077537   3 C  py        
   200      5.927844   5 C  py               62      5.860741   2 C  py        
 
 Vector   40  Occ=0.000000D+00  E= 1.064769D-01
              MO Center=  3.1D-03,  1.3D-01, -5.8D-04, r^2= 2.1D+01
   Bfn.  Coefficient  Atom+Function         Bfn.  Coefficient  Atom+Function  
  ----- ------------  ---------------      ----- ------------  ---------------
   143     18.273892   4 C  s               235    -10.112274   6 C  s         
    51     -9.760923   2 C  s                 5     -9.461617   1 C  s         
   107     -8.726267   3 C  px              199      7.992622   5 C  px        
   245     -7.112450   6 C  px              200      6.860876   5 C  py        
    61      6.422754   2 C  px              108      5.540466   3 C  py        
 
 Vector   41  Occ=0.000000D+00  E= 1.082000D-01
              MO Center=  3.5D-02,  1.6D-01, -1.0D-04, r^2= 2.2D+01
   Bfn.  Coefficient  Atom+Function         Bfn.  Coefficient  Atom+Function  
  ----- ------------  ---------------      ----- ------------  ---------------
   201      3.600401   5 C  pz               63      3.416923   2 C  pz        
   247     -3.347121   6 C  pz              109     -3.106365   3 C  pz        
    60      0.703848   2 C  pz              244     -0.685459   6 C  pz        
   198      0.674173   5 C  pz              106     -0.595256   3 C  pz        
    77     -0.394895   2 C  d  1            215      0.387994   5 C  d  1      
 
 Vector   42  Occ=0.000000D+00  E= 1.089700D-01
              MO Center= -1.7D-02, -4.7D-01,  2.2D-03, r^2= 2.1D+01
   Bfn.  Coefficient  Atom+Function         Bfn.  Coefficient  Atom+Function  
  ----- ------------  ---------------      ----- ------------  ---------------
   155      5.307971   4 C  pz              109     -3.692282   3 C  pz        
   201     -3.175369   5 C  pz               17      2.504515   1 C  pz        
   152      0.981434   4 C  pz              247     -0.730031   6 C  pz        
   106     -0.654401   3 C  pz              167      0.565767   4 C  d -1      
   198     -0.549925   5 C  pz               14      0.503708   1 C  pz        
 
 Vector   43  Occ=0.000000D+00  E= 1.094996D-01
              MO Center=  3.8D-02, -4.5D-01, -1.1D-03, r^2= 2.7D+01
   Bfn.  Coefficient  Atom+Function         Bfn.  Coefficient  Atom+Function  
  ----- ------------  ---------------      ----- ------------  ---------------
   326      7.669227   9 H  s               154      7.056114   4 C  py        
   349     -6.493614  10 H  s               303     -6.455931   8 H  s         
   143     -5.606756   4 C  s               108     -4.426093   3 C  py        
   200     -4.188286   5 C  py              246     -4.173207   6 C  py        
    62     -4.122413   2 C  py                4      3.924522   1 C  s         
 
 Vector   44  Occ=0.000000D+00  E= 1.178182D-01
              MO Center= -4.0D-02,  6.5D-01, -4.2D-04, r^2= 1.4D+01
   Bfn.  Coefficient  Atom+Function         Bfn.  Coefficient  Atom+Function  
  ----- ------------  ---------------      ----- ------------  ---------------
    17      6.880195   1 C  pz               63     -6.011029   2 C  pz        
   247     -6.035940   6 C  pz              109      5.060366   3 C  pz        
   201      5.046839   5 C  pz              155     -4.824080   4 C  pz        
    14      1.235897   1 C  pz              244     -1.024578   6 C  pz        
    60     -1.016686   2 C  pz              106      0.894402   3 C  pz        
 
 Vector   45  Occ=0.000000D+00  E= 1.264065D-01
              MO Center= -1.0D-02,  2.9D-01, -2.4D-05, r^2= 2.5D+01
   Bfn.  Coefficient  Atom+Function         Bfn.  Coefficient  Atom+Function  
  ----- ------------  ---------------      ----- ------------  ---------------
    51      7.592592   2 C  s               235     -7.584260   6 C  s         
   107      7.162098   3 C  px              199      7.179694   5 C  px        
   245     -7.095640   6 C  px               61     -6.883780   2 C  px        
    15      6.452786   1 C  px              189      6.252705   5 C  s         
    97     -6.140946   3 C  s               153     -5.827929   4 C  px        
 
 Vector   46  Occ=0.000000D+00  E= 1.274500D-01
              MO Center= -2.4D-02,  1.9D-01,  1.3D-04, r^2= 2.6D+01
   Bfn.  Coefficient  Atom+Function         Bfn.  Coefficient  Atom+Function  
  ----- ------------  ---------------      ----- ------------  ---------------
   154     -8.035908   4 C  py               16      7.428228   1 C  py        
   108      6.867845   3 C  py               62     -6.629435   2 C  py        
   200      6.613602   5 C  py              246     -6.348596   6 C  py        
   326     -4.050816   9 H  s                 5      3.563638   1 C  s         
   303      3.200344   8 H  s               349      3.128347  10 H  s         
 
 Vector   47  Occ=0.000000D+00  E= 1.609572D-01
              MO Center= -7.6D-03,  1.4D-01,  9.2D-05, r^2= 1.7D+01
   Bfn.  Coefficient  Atom+Function         Bfn.  Coefficient  Atom+Function  
  ----- ------------  ---------------      ----- ------------  ---------------
    17      8.192674   1 C  pz               63     -7.989790   2 C  pz        
   247     -8.018846   6 C  pz              155     -7.856455   4 C  pz        
   109      7.784429   3 C  pz              201      7.757859   5 C  pz        
   106      1.197009   3 C  pz              244     -1.196341   6 C  pz        
    60     -1.187574   2 C  pz              198      1.188632   5 C  pz        
 
 Vector   48  Occ=0.000000D+00  E= 1.660205D-01
              MO Center= -9.1D-02,  1.4D+00,  3.1D-04, r^2= 2.2D+01
   Bfn.  Coefficient  Atom+Function         Bfn.  Coefficient  Atom+Function  
  ----- ------------  ---------------      ----- ------------  ---------------
     5     59.205119   1 C  s                51    -26.185689   2 C  s         
   143     25.961159   4 C  s               235    -25.771747   6 C  s         
   189    -14.761943   5 C  s                97    -14.069013   3 C  s         
   154      7.456101   4 C  py               61     -6.607406   2 C  px        
   245      6.574821   6 C  px              326      6.156297   9 H  s         
 
 Vector   49  Occ=0.000000D+00  E= 1.754234D-01
              MO Center=  2.6D-02, -3.9D-01, -1.6D-04, r^2= 1.1D+01
   Bfn.  Coefficient  Atom+Function         Bfn.  Coefficient  Atom+Function  
  ----- ------------  ---------------      ----- ------------  ---------------
   335      1.104533   9 H  pz              312      1.079602   8 H  pz        
   358      1.078790  10 H  pz              289      0.972067   7 H  pz        
   381      0.974164  11 H  pz               17      0.959419   1 C  pz        
    63     -0.884763   2 C  pz              247     -0.885094   6 C  pz        
   106     -0.847396   3 C  pz              198     -0.838768   5 C  pz        
 
 Vector   50  Occ=0.000000D+00  E= 1.864197D-01
              MO Center=  1.8D-02, -5.5D-01,  9.1D-05, r^2= 1.5D+01
   Bfn.  Coefficient  Atom+Function         Bfn.  Coefficient  Atom+Function  
  ----- ------------  ---------------      ----- ------------  ---------------
     5     15.510124   1 C  s               189     -7.391377   5 C  s         
    97     -7.152903   3 C  s               235     -4.812308   6 C  s         
   325      4.422324   9 H  s                51     -4.152446   2 C  s         
    62     -4.102816   2 C  py              154      3.990344   4 C  py        
   246     -3.756111   6 C  py              348      3.406077  10 H  s         
 
 Vector   51  Occ=0.000000D+00  E= 1.980094D-01
              MO Center=  3.2D-01,  4.1D-01,  3.3D-04, r^2= 2.3D+01
   Bfn.  Coefficient  Atom+Function         Bfn.  Coefficient  Atom+Function  
  ----- ------------  ---------------      ----- ------------  ---------------
   235     51.928913   6 C  s                51    -34.064935   2 C  s         
    97    -26.782492   3 C  s               189     21.803595   5 C  s         
    15    -17.860038   1 C  px              153    -16.407041   4 C  px        
   143    -15.999957   4 C  s               302     14.384306   8 H  s         
   348    -12.674878  10 H  s               200    -12.546665   5 C  py        
 
 Vector   52  Occ=0.000000D+00  E= 1.984717D-01
              MO Center= -3.0D-01, -6.8D-01, -4.9D-04, r^2= 2.3D+01
   Bfn.  Coefficient  Atom+Function         Bfn.  Coefficient  Atom+Function  
  ----- ------------  ---------------      ----- ------------  ---------------
   143     59.187692   4 C  s                51    -45.144327   2 C  s         
   235    -21.560299   6 C  s               325    -16.271000   9 H  s         
   189     15.950776   5 C  s               246     15.029092   6 C  py        
   108     14.142792   3 C  py              279     13.020044   7 H  s         
    62     12.878295   2 C  py              107    -11.525678   3 C  px        
 
 Vector   53  Occ=0.000000D+00  E= 2.154356D-01
              MO Center=  1.0D-01, -1.4D+00, -3.8D-05, r^2= 1.5D+01
   Bfn.  Coefficient  Atom+Function         Bfn.  Coefficient  Atom+Function  
  ----- ------------  ---------------      ----- ------------  ---------------
   189    -13.978904   5 C  s                97     13.757986   3 C  s         
    96      6.620576   3 C  s               188     -6.467423   5 C  s         
   153      6.333003   4 C  px              371      5.264830  11 H  s         
   279     -5.013985   7 H  s               303      4.758183   8 H  s         
   349     -4.711220  10 H  s               246     -4.428136   6 C  py        
 
 Vector   54  Occ=0.000000D+00  E= 2.182590D-01
              MO Center= -7.4D-03, -2.8D-01, -1.2D-04, r^2= 1.5D+01
   Bfn.  Coefficient  Atom+Function         Bfn.  Coefficient  Atom+Function  
  ----- ------------  ---------------      ----- ------------  ---------------
   143     25.709142   4 C  s               235    -19.927133   6 C  s         
     5     15.869089   1 C  s                51    -15.528475   2 C  s         
    16     -6.379477   1 C  py              325     -6.030837   9 H  s         
    62      4.966347   2 C  py              246      4.548775   6 C  py        
   200      4.335900   5 C  py              279      3.870162   7 H  s         
 
 Vector   55  Occ=0.000000D+00  E= 2.191180D-01
              MO Center=  5.7D-02, -8.2D-02,  1.0D-03, r^2= 1.5D+01
   Bfn.  Coefficient  Atom+Function         Bfn.  Coefficient  Atom+Function  
  ----- ------------  ---------------      ----- ------------  ---------------
    51     21.126796   2 C  s               235    -18.216277   6 C  s         
   108     -8.534000   3 C  py              200      7.884036   5 C  py        
    15      7.466726   1 C  px              302     -6.956746   8 H  s         
   348      6.816844  10 H  s               153      6.239701   4 C  px        
   246     -4.399100   6 C  py               62      3.532797   2 C  py        
 
 Vector   56  Occ=0.000000D+00  E= 2.301164D-01
              MO Center= -6.3D-02,  2.9D-01,  1.9D-03, r^2= 1.8D+01
   Bfn.  Coefficient  Atom+Function         Bfn.  Coefficient  Atom+Function  
  ----- ------------  ---------------      ----- ------------  ---------------
   199      4.851020   5 C  px              107      4.708729   3 C  px        
   153     -3.568981   4 C  px              234      3.356561   6 C  s         
   303      3.225258   8 H  s                50     -3.191491   2 C  s         
   349     -3.089152  10 H  s                15     -2.624683   1 C  px        
   108      2.447192   3 C  py              150      1.944019   4 C  px        
 
 Vector   57  Occ=0.000000D+00  E= 2.311982D-01
              MO Center=  3.7D-04,  1.0D-03, -3.8D-03, r^2= 1.6D+01
   Bfn.  Coefficient  Atom+Function         Bfn.  Coefficient  Atom+Function  
  ----- ------------  ---------------      ----- ------------  ---------------
   106      2.149228   3 C  pz              198     -2.136358   5 C  pz        
   244     -2.052636   6 C  pz               60      2.041432   2 C  pz        
   312     -1.818678   8 H  pz              358      1.818002  10 H  pz        
   289     -1.718798   7 H  pz              381      1.722267  11 H  pz        
   169     -1.379759   4 C  d  1             31     -1.247019   1 C  d  1      
 
 Vector   58  Occ=0.000000D+00  E= 2.354244D-01
              MO Center= -5.1D-02,  2.1D-01,  3.6D-04, r^2= 1.6D+01
   Bfn.  Coefficient  Atom+Function         Bfn.  Coefficient  Atom+Function  
  ----- ------------  ---------------      ----- ------------  ---------------
   143     14.896367   4 C  s                51    -12.561223   2 C  s         
   235     -8.318831   6 C  s               107     -7.998437   3 C  px        
   199      7.951761   5 C  px               61      5.403072   2 C  px        
   245     -5.262699   6 C  px              349     -4.705679  10 H  s         
   303     -4.104344   8 H  s                 5      4.056045   1 C  s         
 
 Vector   59  Occ=0.000000D+00  E= 2.364953D-01
              MO Center=  2.8D-02,  7.7D-02,  1.1D-03, r^2= 1.7D+01
   Bfn.  Coefficient  Atom+Function         Bfn.  Coefficient  Atom+Function  
  ----- ------------  ---------------      ----- ------------  ---------------
    97    -33.028314   3 C  s               189     33.176172   5 C  s         
   235    -32.318271   6 C  s                51     30.653516   2 C  s         
    96    -14.766843   3 C  s               188     13.888906   5 C  s         
   279     10.857862   7 H  s               371    -10.712927  11 H  s         
   302    -10.629165   8 H  s               348     10.657006  10 H  s         
 
 Vector   60  Occ=0.000000D+00  E= 2.434512D-01
              MO Center=  1.7D-03, -4.3D-02, -4.5D-04, r^2= 1.5D+01
   Bfn.  Coefficient  Atom+Function         Bfn.  Coefficient  Atom+Function  
  ----- ------------  ---------------      ----- ------------  ---------------
   152      3.413907   4 C  pz               14     -3.025891   1 C  pz        
   289      2.171538   7 H  pz              381      2.170215  11 H  pz        
   335     -2.124814   9 H  pz              261      2.006037   6 C  d  1      
    77     -1.982851   2 C  d  1             63     -1.597450   2 C  pz        
   247     -1.598567   6 C  pz              155      1.369872   4 C  pz        
 
 Vector   61  Occ=0.000000D+00  E= 2.594967D-01
              MO Center=  8.7D-02, -6.0D-01,  6.8D-05, r^2= 1.7D+01
   Bfn.  Coefficient  Atom+Function         Bfn.  Coefficient  Atom+Function  
  ----- ------------  ---------------      ----- ------------  ---------------
     5      8.731056   1 C  s               108     -6.552740   3 C  py        
   200     -6.137553   5 C  py              349     -5.274237  10 H  s         
   199      5.218060   5 C  px              303     -5.091080   8 H  s         
   197     -4.977943   5 C  py              143     -4.780240   4 C  s         
   105     -4.581508   3 C  py              371      4.416526  11 H  s         
 
 Vector   62  Occ=0.000000D+00  E= 2.620202D-01
              MO Center=  8.8D-02, -1.1D+00, -5.4D-05, r^2= 1.7D+01
   Bfn.  Coefficient  Atom+Function         Bfn.  Coefficient  Atom+Function  
  ----- ------------  ---------------      ----- ------------  ---------------
     5     18.937514   1 C  s               154     15.367852   4 C  py        
    51    -15.100887   2 C  s               143     15.150612   4 C  s         
   235    -14.005891   6 C  s               326      9.179394   9 H  s         
     4      6.005828   1 C  s               189     -5.044664   5 C  s         
   108     -4.728828   3 C  py              151      4.364620   4 C  py        
 
 Vector   63  Occ=0.000000D+00  E= 2.676841D-01
              MO Center= -7.1D-02,  4.3D-01,  5.6D-05, r^2= 2.0D+01
   Bfn.  Coefficient  Atom+Function         Bfn.  Coefficient  Atom+Function  
  ----- ------------  ---------------      ----- ------------  ---------------
   235    -20.568956   6 C  s                51     19.787568   2 C  s         
    97    -12.080342   3 C  s               189     11.720490   5 C  s         
    61     10.975138   2 C  px              245     10.272111   6 C  px        
    96     -8.971255   3 C  s               279      8.894734   7 H  s         
   371     -8.629587  11 H  s               188      8.505709   5 C  s         
 
 Vector   64  Occ=0.000000D+00  E= 2.747950D-01
              MO Center=  2.9D-04,  2.4D-02,  6.4D-05, r^2= 1.4D+01
   Bfn.  Coefficient  Atom+Function         Bfn.  Coefficient  Atom+Function  
  ----- ------------  ---------------      ----- ------------  ---------------
   143      8.950659   4 C  s                 5      8.706106   1 C  s         
   154      5.774204   4 C  py              279     -5.696840   7 H  s         
   371     -5.608666  11 H  s               348     -4.715706  10 H  s         
   302     -4.581310   8 H  s               325     -4.356852   9 H  s         
    16     -4.038674   1 C  py              246      3.306135   6 C  py        
 
 Vector   65  Occ=0.000000D+00  E= 2.829797D-01
              MO Center= -3.1D-02,  1.8D-01, -1.9D-05, r^2= 1.6D+01
   Bfn.  Coefficient  Atom+Function         Bfn.  Coefficient  Atom+Function  
  ----- ------------  ---------------      ----- ------------  ---------------
    12      9.523619   1 C  px               97      8.931059   3 C  s         
   189     -8.867681   5 C  s               235      8.101347   6 C  s         
   302      8.102263   8 H  s               348     -8.101040  10 H  s         
    51     -7.946695   2 C  s               199      7.621491   5 C  px        
   107      7.169000   3 C  px              150      6.192145   4 C  px        
 
 Vector   66  Occ=0.000000D+00  E= 2.954376D-01
              MO Center=  5.1D-03,  5.2D-02, -1.4D-05, r^2= 1.6D+01
   Bfn.  Coefficient  Atom+Function         Bfn.  Coefficient  Atom+Function  
  ----- ------------  ---------------      ----- ------------  ---------------
   201      3.214219   5 C  pz               63      3.195442   2 C  pz        
   247     -3.206963   6 C  pz              109     -3.162471   3 C  pz        
    60      2.276867   2 C  pz              289     -2.276778   7 H  pz        
   358     -2.278426  10 H  pz              381      2.282363  11 H  pz        
   244     -2.236265   6 C  pz              312      2.245017   8 H  pz        
 
 Vector   67  Occ=0.000000D+00  E= 2.962816D-01
              MO Center= -4.7D-02,  9.6D-01,  4.0D-04, r^2= 1.4D+01
   Bfn.  Coefficient  Atom+Function         Bfn.  Coefficient  Atom+Function  
  ----- ------------  ---------------      ----- ------------  ---------------
     4     10.424508   1 C  s                59     -5.709217   2 C  py        
   243     -5.667589   6 C  py              105     -5.558702   3 C  py        
     5      5.529691   1 C  s               197     -5.095501   5 C  py        
    16      4.275356   1 C  py              371     -4.255428  11 H  s         
   279     -4.119022   7 H  s                13      3.923348   1 C  py        
 
 Vector   68  Occ=0.000000D+00  E= 3.080400D-01
              MO Center=  1.8D-02, -2.7D-01, -4.5D-04, r^2= 1.5D+01
   Bfn.  Coefficient  Atom+Function         Bfn.  Coefficient  Atom+Function  
  ----- ------------  ---------------      ----- ------------  ---------------
   155      5.177819   4 C  pz               14      4.363668   1 C  pz        
   109     -3.770258   3 C  pz              201     -3.708402   5 C  pz        
   335     -2.710280   9 H  pz              244     -2.089469   6 C  pz        
    60     -2.009556   2 C  pz              152      1.852629   4 C  pz        
    17      1.841752   1 C  pz              312      1.732238   8 H  pz        
 
 Vector   69  Occ=0.000000D+00  E= 3.150477D-01
              MO Center= -7.9D-03, -7.4D-02,  1.8D-05, r^2= 9.1D+00
   Bfn.  Coefficient  Atom+Function         Bfn.  Coefficient  Atom+Function  
  ----- ------------  ---------------      ----- ------------  ---------------
   261      1.239201   6 C  d  1             77      1.148338   2 C  d  1      
   169     -1.083172   4 C  d  1             75     -1.013604   2 C  d -1      
   259      0.885243   6 C  d -1            289     -0.729759   7 H  pz        
   381      0.712513  11 H  pz               31      0.633947   1 C  d  1      
    60     -0.353560   2 C  pz              244      0.319549   6 C  pz        
 
 Vector   70  Occ=0.000000D+00  E= 3.284696D-01
              MO Center=  2.9D-02, -6.2D-01,  5.8D-05, r^2= 1.5D+01
   Bfn.  Coefficient  Atom+Function         Bfn.  Coefficient  Atom+Function  
  ----- ------------  ---------------      ----- ------------  ---------------
   142     12.130951   4 C  s               188      8.867053   5 C  s         
    96      8.548424   3 C  s               151     -6.854165   4 C  py        
   325     -5.850655   9 H  s                 4     -5.225822   1 C  s         
   334     -5.004823   9 H  py                5      4.887361   1 C  s         
   302     -4.710880   8 H  s               243      4.386904   6 C  py        
 
 Vector   71  Occ=0.000000D+00  E= 3.347605D-01
              MO Center=  1.3D-03,  2.5D-02,  2.1D-04, r^2= 7.7D+00
   Bfn.  Coefficient  Atom+Function         Bfn.  Coefficient  Atom+Function  
  ----- ------------  ---------------      ----- ------------  ---------------
   289      2.024775   7 H  pz              381      2.034149  11 H  pz        
   335      1.839975   9 H  pz               14     -1.773313   1 C  pz        
   155     -1.702406   4 C  pz               63     -1.546852   2 C  pz        
   247     -1.542643   6 C  pz               77     -1.508187   2 C  d  1      
   261      1.417546   6 C  d  1            106     -1.305579   3 C  pz        
 
 Vector   72  Occ=0.000000D+00  E= 3.433098D-01
              MO Center= -4.1D-03, -3.9D-01, -5.2D-03, r^2= 1.2D+01
   Bfn.  Coefficient  Atom+Function         Bfn.  Coefficient  Atom+Function  
  ----- ------------  ---------------      ----- ------------  ---------------
   169      3.302956   4 C  d  1             31      2.697706   1 C  d  1      
   312     -2.483827   8 H  pz              358      2.473055  10 H  pz        
   123      2.290075   3 C  d  1            215      2.045286   5 C  d  1      
   106     -1.862639   3 C  pz              198      1.730655   5 C  pz        
   289     -1.507118   7 H  pz              381      1.347321  11 H  pz        
 
 Vector   73  Occ=0.000000D+00  E= 3.447532D-01
              MO Center= -3.5D-02,  5.2D-01, -6.6D-04, r^2= 1.2D+01
   Bfn.  Coefficient  Atom+Function         Bfn.  Coefficient  Atom+Function  
  ----- ------------  ---------------      ----- ------------  ---------------
   143     22.981515   4 C  s               235    -15.857465   6 C  s         
   371     13.976928  11 H  s               325    -12.654610   9 H  s         
   279      9.328892   7 H  s                 5     -7.683061   1 C  s         
   197     -6.926663   5 C  py               51     -6.848727   2 C  s         
   105     -6.603111   3 C  py              302     -6.483832   8 H  s         
 
 Vector   74  Occ=0.000000D+00  E= 3.479789D-01
              MO Center=  8.0D-02, -1.1D-01,  4.6D-03, r^2= 1.2D+01
   Bfn.  Coefficient  Atom+Function         Bfn.  Coefficient  Atom+Function  
  ----- ------------  ---------------      ----- ------------  ---------------
    51     24.038369   2 C  s               235    -17.303142   6 C  s         
   348     12.512664  10 H  s               279    -11.751732   7 H  s         
   189    -11.300315   5 C  s               302    -10.784065   8 H  s         
    97      9.890328   3 C  s                12     -7.823652   1 C  px        
   371      7.165905  11 H  s               150     -6.876836   4 C  px        
 
 Vector   75  Occ=0.000000D+00  E= 3.481729D-01
              MO Center=  2.2D-02, -5.2D-01,  1.9D-03, r^2= 1.3D+01
   Bfn.  Coefficient  Atom+Function         Bfn.  Coefficient  Atom+Function  
  ----- ------------  ---------------      ----- ------------  ---------------
   155     -3.973889   4 C  pz               17      3.786318   1 C  pz        
   109      3.558045   3 C  pz              201      3.571895   5 C  pz        
    63     -3.448265   2 C  pz              247     -3.463513   6 C  pz        
   152     -2.995737   4 C  pz              213     -2.304632   5 C  d -1      
   381      2.305118  11 H  pz               75     -2.257106   2 C  d -1      
 
 Vector   76  Occ=0.000000D+00  E= 3.527425D-01
              MO Center=  6.2D-02, -5.2D-01, -2.6D-04, r^2= 1.4D+01
   Bfn.  Coefficient  Atom+Function         Bfn.  Coefficient  Atom+Function  
  ----- ------------  ---------------      ----- ------------  ---------------
    17      6.390558   1 C  pz               63     -5.860453   2 C  pz        
   247     -5.858164   6 C  pz              109      5.149531   3 C  pz        
   201      5.102384   5 C  pz              155     -4.853119   4 C  pz        
   335      3.961640   9 H  pz               14      3.794175   1 C  pz        
   167      3.079935   4 C  d -1             60     -2.712218   2 C  pz        
 
 Vector   77  Occ=0.000000D+00  E= 3.546307D-01
              MO Center= -5.8D-03,  3.1D-01, -6.5D-04, r^2= 1.5D+01
   Bfn.  Coefficient  Atom+Function         Bfn.  Coefficient  Atom+Function  
  ----- ------------  ---------------      ----- ------------  ---------------
     5     31.349971   1 C  s               235    -16.211880   6 C  s         
   143     15.738101   4 C  s                51    -15.094330   2 C  s         
   151    -11.077914   4 C  py              196     -7.894767   5 C  px        
    50      7.805898   2 C  s               279     -7.597605   7 H  s         
    13      7.248948   1 C  py              234      6.960289   6 C  s         
 
 Vector   78  Occ=0.000000D+00  E= 3.599082D-01
              MO Center= -3.5D-02,  7.5D-01,  2.5D-04, r^2= 1.3D+01
   Bfn.  Coefficient  Atom+Function         Bfn.  Coefficient  Atom+Function  
  ----- ------------  ---------------      ----- ------------  ---------------
   381     -3.420285  11 H  pz              289      3.391967   7 H  pz        
   244     -3.239200   6 C  pz               60      3.076549   2 C  pz        
    77     -3.046606   2 C  d  1            121     -3.060106   3 C  d -1      
   259      3.048492   6 C  d -1            213      2.817253   5 C  d -1      
   312     -2.786098   8 H  pz              198      2.754362   5 C  pz        
 
 Vector   79  Occ=0.000000D+00  E= 3.685369D-01
              MO Center= -7.5D-02, -5.8D-01, -1.4D-04, r^2= 1.3D+01
   Bfn.  Coefficient  Atom+Function         Bfn.  Coefficient  Atom+Function  
  ----- ------------  ---------------      ----- ------------  ---------------
    96     10.915114   3 C  s               188     10.468752   5 C  s         
   104     -8.794314   3 C  px              196      8.199647   5 C  px        
   142     -7.479125   4 C  s                 5      7.105312   1 C  s         
   120     -5.493543   3 C  d -2            258      5.048304   6 C  d -2      
   212      5.006055   5 C  d -2             58      4.981040   2 C  px        
 
 Vector   80  Occ=0.000000D+00  E= 3.721416D-01
              MO Center=  7.1D-02, -3.1D-01, -2.4D-04, r^2= 1.3D+01
   Bfn.  Coefficient  Atom+Function         Bfn.  Coefficient  Atom+Function  
  ----- ------------  ---------------      ----- ------------  ---------------
    97     10.162275   3 C  s               189     -9.369796   5 C  s         
    50      9.024175   2 C  s               234     -8.973504   6 C  s         
   371      5.707805  11 H  s               357      5.618134  10 H  py        
   235      5.392198   6 C  s               212     -5.344641   5 C  d -2      
   279     -5.199662   7 H  s               311     -4.714755   8 H  py        
 
 Vector   81  Occ=0.000000D+00  E= 3.819062D-01
              MO Center=  4.0D-02, -5.7D-01, -1.7D-06, r^2= 1.6D+01
   Bfn.  Coefficient  Atom+Function         Bfn.  Coefficient  Atom+Function  
  ----- ------------  ---------------      ----- ------------  ---------------
   166      9.081183   4 C  d -2            333      7.119683   9 H  px        
   150     -6.645488   4 C  px              216     -6.447504   5 C  d  2      
   124      6.218218   3 C  d  2            279      6.105561   7 H  s         
   371     -5.634109  11 H  s               310      5.111176   8 H  px        
   356      4.997281  10 H  px               97     -4.868964   3 C  s         
 
 Vector   82  Occ=0.000000D+00  E= 3.932585D-01
              MO Center= -4.1D-03,  4.6D-01,  1.8D-04, r^2= 1.5D+01
   Bfn.  Coefficient  Atom+Function         Bfn.  Coefficient  Atom+Function  
  ----- ------------  ---------------      ----- ------------  ---------------
    12     12.162846   1 C  px               51    -11.601591   2 C  s         
   235     10.506434   6 C  s               262      9.029461   6 C  d  2      
    78     -8.841442   2 C  d  2             15     -6.833502   1 C  px        
   216      6.675433   5 C  d  2            379     -5.927403  11 H  px        
   124     -5.839456   3 C  d  2            153     -5.861241   4 C  px        
 
 Vector   83  Occ=0.000000D+00  E= 3.960274D-01
              MO Center= -4.9D-02,  8.3D-01,  2.3D-04, r^2= 1.2D+01
   Bfn.  Coefficient  Atom+Function         Bfn.  Coefficient  Atom+Function  
  ----- ------------  ---------------      ----- ------------  ---------------
   152     -7.531673   4 C  pz              106      7.369379   3 C  pz        
   198      7.303915   5 C  pz               60     -6.472969   2 C  pz        
   244     -6.487398   6 C  pz              167     -6.334480   4 C  d -1      
   215      5.114460   5 C  d  1            123     -4.713706   3 C  d  1      
    14      4.573404   1 C  pz              259      4.012076   6 C  d -1      
 
 Vector   84  Occ=0.000000D+00  E= 4.017433D-01
              MO Center= -7.4D-02,  5.2D-01, -7.2D-04, r^2= 1.5D+01
   Bfn.  Coefficient  Atom+Function         Bfn.  Coefficient  Atom+Function  
  ----- ------------  ---------------      ----- ------------  ---------------
     5     51.722121   1 C  s                51    -20.101041   2 C  s         
   235    -19.436460   6 C  s               189    -18.019152   5 C  s         
    97    -16.742612   3 C  s               143     11.664639   4 C  s         
   142    -10.267501   4 C  s                 4     -9.659865   1 C  s         
   234     -7.976834   6 C  s                50     -7.891610   2 C  s         
 
 Vector   85  Occ=0.000000D+00  E= 4.053055D-01
              MO Center=  1.6D-04,  8.6D-02, -6.8D-05, r^2= 1.3D+01
   Bfn.  Coefficient  Atom+Function         Bfn.  Coefficient  Atom+Function  
  ----- ------------  ---------------      ----- ------------  ---------------
[...]
     Occ.   20 alpha a   ---  Virt.   25 alpha a    0.14910 X
     Occ.   20 alpha a   ---  Virt.   26 alpha a    0.83729 X
     Occ.   20 alpha a   ---  Virt.   35 alpha a   -0.05727 X
     Occ.   20 alpha a   ---  Virt.   36 alpha a   -0.05970 X
  ----------------------------------------------------------------------------
  Root  28         a              0.252938134 a.u.                6.8828 eV 
  <S2> =   1.8866
  ----------------------------------------------------------------------------
     Transition Moments    X  0.00007   Y  0.00002   Z  0.11566
     Transition Moments   XX  0.00003  XY -0.00004  XZ  0.32356
     Transition Moments   YY  0.00013  YZ  0.10404  ZZ  0.00004
     Dipole Oscillator Strength                    0.0022559301
     Electric Quadrupole                           0.0000000100
     Magnetic Dipole                               0.0000000142
     Total Oscillator Strength                     0.0022559543
 
     Occ.   19 alpha a   ---  Virt.   25 alpha a   -0.21413 X
     Occ.   19 alpha a   ---  Virt.   26 alpha a    0.83822 X
     Occ.   19 alpha a   ---  Virt.   35 alpha a   -0.05725 X
     Occ.   19 alpha a   ---  Virt.   36 alpha a   -0.06015 X
     Occ.   20 alpha a   ---  Virt.   26 alpha a   -0.47758 X
     Occ.   19 beta  a   ---  Virt.   26 beta  a   -0.08017 X
  ----------------------------------------------------------------------------
  Root  29         a              0.254031149 a.u.                6.9125 eV 
  <S2> =   1.5940
  ----------------------------------------------------------------------------
     Transition Moments    X -0.00001   Y  0.00002   Z  0.02209
     Transition Moments   XX  0.00003  XY -0.00005  XZ  0.49565
     Transition Moments   YY  0.00012  YZ  0.04043  ZZ  0.00003
     Dipole Oscillator Strength                    0.0000826161
     Electric Quadrupole                           0.0000000216
     Magnetic Dipole                               0.0000000113
     Total Oscillator Strength                     0.0000826489
 
     Occ.   19 alpha a   ---  Virt.   26 alpha a    0.06729 X
     Occ.   20 alpha a   ---  Virt.   26 alpha a   -0.05282 X
     Occ.   19 beta  a   ---  Virt.   26 beta  a    0.98375 X
     Occ.   19 beta  a   ---  Virt.   35 beta  a   -0.05777 X
     Occ.   19 beta  a   ---  Virt.   36 beta  a   -0.07392 X
     Occ.   20 beta  a   ---  Virt.   25 beta  a   -0.09521 X
  ----------------------------------------------------------------------------
  Root  30         a              0.254778918 a.u.                6.9329 eV 
  <S2> =   0.7706
  ----------------------------------------------------------------------------
     Transition Moments    X  1.50188   Y  0.12348   Z -0.00003
     Transition Moments   XX  0.00700  XY -0.19022  XZ  0.00002
     Transition Moments   YY  0.00013  YZ -0.00002  ZZ  0.00242
     Dipole Oscillator Strength                    0.3857180712
     Electric Quadrupole                           0.0000000032
     Magnetic Dipole                               0.0000000186
     Total Oscillator Strength                     0.3857180930
 
     Occ.   19 alpha a   ---  Virt.   22 alpha a    0.31897 X
     Occ.   19 alpha a   ---  Virt.   23 alpha a    0.24875 X
     Occ.   19 alpha a   ---  Virt.   29 alpha a   -0.06933 X
     Occ.   20 alpha a   ---  Virt.   22 alpha a    0.20408 X
     Occ.   20 alpha a   ---  Virt.   23 alpha a   -0.34980 X
     Occ.   20 alpha a   ---  Virt.   29 alpha a    0.12279 X
     Occ.   21 alpha a   ---  Virt.   25 alpha a   -0.07601 X
     Occ.   21 alpha a   ---  Virt.   27 alpha a    0.38654 X
     Occ.   13 beta  a   ---  Virt.   21 beta  a   -0.12141 X
     Occ.   15 beta  a   ---  Virt.   21 beta  a   -0.27081 X
     Occ.   19 beta  a   ---  Virt.   24 beta  a    0.49929 X
     Occ.   19 beta  a   ---  Virt.   29 beta  a   -0.13862 X
     Occ.   20 beta  a   ---  Virt.   22 beta  a    0.34666 X
     Occ.   20 beta  a   ---  Virt.   22 beta  a   -0.05594 Y
  ----------------------------------------------------------------------------
  Root  31         a              0.255402664 a.u.                6.9499 eV 
  <S2> =   0.8012
  ----------------------------------------------------------------------------
     Transition Moments    X  0.05554   Y -0.63481   Z -0.00000
     Transition Moments   XX -0.64900  XY  0.06682  XZ  0.00002
     Transition Moments   YY -1.88711  YZ -0.00003  ZZ -0.14657
     Dipole Oscillator Strength                    0.0691415428
     Electric Quadrupole                           0.0000000716
     Magnetic Dipole                               0.0000000000
     Total Oscillator Strength                     0.0691416144
 
     Occ.   19 alpha a   ---  Virt.   22 alpha a   -0.06182 X
     Occ.   19 alpha a   ---  Virt.   23 alpha a    0.08826 X
     Occ.   20 alpha a   ---  Virt.   22 alpha a    0.09624 X
     Occ.   20 alpha a   ---  Virt.   23 alpha a    0.05793 X
     Occ.   21 alpha a   ---  Virt.   26 alpha a    0.18448 X
     Occ.   21 alpha a   ---  Virt.   28 alpha a   -0.90988 X
     Occ.   21 alpha a   ---  Virt.   30 alpha a   -0.12844 X
     Occ.   21 alpha a   ---  Virt.   31 alpha a   -0.16280 X
     Occ.   21 alpha a   ---  Virt.   48 alpha a    0.05656 X
     Occ.   16 beta  a   ---  Virt.   21 beta  a    0.18857 X
     Occ.   19 beta  a   ---  Virt.   22 beta  a   -0.10874 X
     Occ.   20 beta  a   ---  Virt.   24 beta  a    0.09601 X
  ----------------------------------------------------------------------------
  Root  32         a              0.260749191 a.u.                7.0953 eV 
  <S2> =   0.8002
  ----------------------------------------------------------------------------
     Transition Moments    X  0.00001   Y -0.00002   Z  0.09555
     Transition Moments   XX -0.00000  XY -0.00000  XZ -0.04836
     Transition Moments   YY -0.00004  YZ  0.70462  ZZ -0.00000
     Dipole Oscillator Strength                    0.0015869243
     Electric Quadrupole                           0.0000000471
     Magnetic Dipole                               0.0000000330
     Total Oscillator Strength                     0.0015870043
 
     Occ.   21 alpha a   ---  Virt.   29 alpha a   -0.97945 X
     Occ.   21 alpha a   ---  Virt.   33 alpha a   -0.17995 X
  ----------------------------------------------------------------------------
  Root  33         a              0.265349829 a.u.                7.2205 eV 
  <S2> =   1.7835
  ----------------------------------------------------------------------------
     Transition Moments    X  0.00001   Y  0.00001   Z -0.00138
     Transition Moments   XX -0.00006  XY  0.00001  XZ  0.54563
     Transition Moments   YY -0.00002  YZ -0.01293  ZZ -0.00004
     Dipole Oscillator Strength                    0.0000003353
     Electric Quadrupole                           0.0000000296
     Magnetic Dipole                               0.0000000006
     Total Oscillator Strength                     0.0000003656
 
     Occ.   20 beta  a   ---  Virt.   27 beta  a    0.99091 X
     Occ.   20 beta  a   ---  Virt.   38 beta  a   -0.09653 X
  ----------------------------------------------------------------------------
  Root  34         a              0.267183158 a.u.                7.2704 eV 
  <S2> =   0.8223
  ----------------------------------------------------------------------------
     Transition Moments    X -0.09274   Y  1.19910   Z -0.00000
     Transition Moments   XX -0.01965  XY  0.04875  XZ -0.00001
     Transition Moments   YY -0.69392  YZ -0.00005  ZZ -0.04631
     Dipole Oscillator Strength                    0.2576425067
     Electric Quadrupole                           0.0000000150
     Magnetic Dipole                               0.0000000002
     Total Oscillator Strength                     0.2576425220
 
     Occ.   17 alpha a   ---  Virt.   23 alpha a    0.08533 X
     Occ.   19 alpha a   ---  Virt.   22 alpha a    0.13248 X
     Occ.   19 alpha a   ---  Virt.   23 alpha a   -0.25428 X
     Occ.   19 alpha a   ---  Virt.   29 alpha a   -0.13429 X
     Occ.   20 alpha a   ---  Virt.   22 alpha a   -0.17964 X
     Occ.   20 alpha a   ---  Virt.   23 alpha a   -0.16742 X
     Occ.   20 alpha a   ---  Virt.   29 alpha a   -0.09098 X
     Occ.   21 alpha a   ---  Virt.   28 alpha a   -0.30096 X
     Occ.   21 alpha a   ---  Virt.   30 alpha a    0.42709 X
     Occ.   21 alpha a   ---  Virt.   31 alpha a   -0.08018 X
     Occ.   14 beta  a   ---  Virt.   21 beta  a    0.08539 X
     Occ.   16 beta  a   ---  Virt.   21 beta  a   -0.50120 X
     Occ.   19 beta  a   ---  Virt.   22 beta  a    0.22311 X
     Occ.   20 beta  a   ---  Virt.   24 beta  a   -0.30650 X
     Occ.   20 beta  a   ---  Virt.   29 beta  a   -0.34558 X
  ----------------------------------------------------------------------------
  Root  35         a              0.270688640 a.u.                7.3658 eV 
  <S2> =   2.5042
  ----------------------------------------------------------------------------
     Transition Moments    X -0.00000   Y -0.00001   Z -0.01163
     Transition Moments   XX -0.00002  XY -0.00001  XZ  0.20169
     Transition Moments   YY  0.00002  YZ -0.22142  ZZ -0.00002
     Dipole Oscillator Strength                    0.0000244127
     Electric Quadrupole                           0.0000000095
     Magnetic Dipole                               0.0000000002
     Total Oscillator Strength                     0.0000244223
 
     Occ.   19 alpha a   ---  Virt.   27 alpha a   -0.16153 X
     Occ.   20 alpha a   ---  Virt.   27 alpha a    0.85284 X
     Occ.   20 alpha a   ---  Virt.   38 alpha a   -0.09071 X
     Occ.   19 beta  a   ---  Virt.   27 beta  a    0.46442 X
     Occ.   19 beta  a   ---  Virt.   38 beta  a   -0.05681 X
     Occ.   20 beta  a   ---  Virt.   28 beta  a   -0.05670 X
     Occ.   20 beta  a   ---  Virt.   30 beta  a   -0.05558 X
  ----------------------------------------------------------------------------
  Root  36         a              0.271208447 a.u.                7.3800 eV 
  <S2> =   2.7393
  ----------------------------------------------------------------------------
     Transition Moments    X -0.04928   Y  0.00731   Z  0.00000
     Transition Moments   XX -0.03377  XY  0.02520  XZ -0.00003
     Transition Moments   YY  0.02138  YZ  0.00005  ZZ -0.00735
     Dipole Oscillator Strength                    0.0004487414
     Electric Quadrupole                           0.0000000001
     Magnetic Dipole                               0.0000000018
     Total Oscillator Strength                     0.0004487433
 
     Occ.   17 alpha a   ---  Virt.   22 alpha a   -0.59674 X
     Occ.   17 alpha a   ---  Virt.   41 alpha a    0.05225 X
     Occ.   19 alpha a   ---  Virt.   29 alpha a    0.06153 X
     Occ.   19 alpha a   ---  Virt.   32 alpha a    0.06826 X
     Occ.   19 alpha a   ---  Virt.   44 alpha a   -0.09742 X
     Occ.   19 alpha a   ---  Virt.   47 alpha a    0.07436 X
     Occ.   20 alpha a   ---  Virt.   29 alpha a   -0.15500 X
     Occ.   20 alpha a   ---  Virt.   44 alpha a    0.20488 X
     Occ.   20 alpha a   ---  Virt.   47 alpha a   -0.15707 X
     Occ.   17 beta  a   ---  Virt.   22 beta  a    0.64251 X
     Occ.   17 beta  a   ---  Virt.   41 beta  a   -0.05411 X
     Occ.   19 beta  a   ---  Virt.   29 beta  a   -0.09991 X
     Occ.   19 beta  a   ---  Virt.   44 beta  a    0.19732 X
     Occ.   19 beta  a   ---  Virt.   47 beta  a   -0.16389 X
     Occ.   20 beta  a   ---  Virt.   29 beta  a    0.05573 X
     Occ.   20 beta  a   ---  Virt.   31 beta  a   -0.10159 X
  ----------------------------------------------------------------------------
  Root  37         a              0.271712933 a.u.                7.3937 eV 
  <S2> =   1.1994
  ----------------------------------------------------------------------------
     Transition Moments    X -0.00000   Y -0.00008   Z -0.02007
     Transition Moments   XX  0.00014  XY -0.00002  XZ  0.19699
     Transition Moments   YY -0.00006  YZ -0.74103  ZZ  0.00002
     Dipole Oscillator Strength                    0.0000729546
     Electric Quadrupole                           0.0000000628
     Magnetic Dipole                               0.0000000036
     Total Oscillator Strength                     0.0000730210
 
     Occ.   19 alpha a   ---  Virt.   27 alpha a    0.13197 X
     Occ.   20 alpha a   ---  Virt.   27 alpha a    0.48712 X
     Occ.   19 beta  a   ---  Virt.   27 beta  a   -0.84953 X
     Occ.   19 beta  a   ---  Virt.   38 beta  a    0.08278 X
     Occ.   20 beta  a   ---  Virt.   28 beta  a   -0.08765 X
  ----------------------------------------------------------------------------
  Root  38         a              0.271741952 a.u.                7.3945 eV 
  <S2> =   1.0607
  ----------------------------------------------------------------------------
     Transition Moments    X -0.03918   Y  0.50595   Z -0.00001
     Transition Moments   XX -1.04505  XY -0.12535  XZ  0.00004
     Transition Moments   YY  0.75146  YZ -0.00018  ZZ -0.23898
     Dipole Oscillator Strength                    0.0466531644
     Electric Quadrupole                           0.0000000882
     Magnetic Dipole                               0.0000000001
     Total Oscillator Strength                     0.0466532527
 
     Occ.   17 alpha a   ---  Virt.   23 alpha a    0.06112 X
     Occ.   19 alpha a   ---  Virt.   23 alpha a   -0.07424 X
     Occ.   21 alpha a   ---  Virt.   30 alpha a   -0.79535 X
     Occ.   21 alpha a   ---  Virt.   31 alpha a    0.20450 X
     Occ.   21 alpha a   ---  Virt.   35 alpha a   -0.07391 X
     Occ.   21 alpha a   ---  Virt.   40 alpha a    0.05653 X
     Occ.   14 beta  a   ---  Virt.   21 beta  a    0.06099 X
     Occ.   16 beta  a   ---  Virt.   21 beta  a   -0.18585 X
     Occ.   19 beta  a   ---  Virt.   22 beta  a    0.05732 X
     Occ.   20 beta  a   ---  Virt.   24 beta  a   -0.09390 X
     Occ.   20 beta  a   ---  Virt.   29 beta  a   -0.49061 X
  ----------------------------------------------------------------------------
  Root  39         a              0.272441766 a.u.                7.4135 eV 
  <S2> =   1.9503
  ----------------------------------------------------------------------------
     Transition Moments    X  0.00000   Y -0.00003   Z -0.04263
     Transition Moments   XX -0.00001  XY -0.00005  XZ -0.18900
     Transition Moments   YY -0.00003  YZ -0.58838  ZZ -0.00001
     Dipole Oscillator Strength                    0.0003300078
     Electric Quadrupole                           0.0000000411
     Magnetic Dipole                               0.0000000035
     Total Oscillator Strength                     0.0003300524
 
     Occ.   19 alpha a   ---  Virt.   27 alpha a   -0.35087 X
     Occ.   19 alpha a   ---  Virt.   28 alpha a    0.09341 X
     Occ.   20 alpha a   ---  Virt.   27 alpha a   -0.12032 X
     Occ.   20 alpha a   ---  Virt.   28 alpha a    0.06692 X
     Occ.   17 beta  a   ---  Virt.   21 beta  a    0.05268 X
     Occ.   20 beta  a   ---  Virt.   28 beta  a   -0.90722 X
     Occ.   20 beta  a   ---  Virt.   30 beta  a   -0.05200 X
     Occ.   20 beta  a   ---  Virt.   32 beta  a   -0.07010 X
     Occ.   20 beta  a   ---  Virt.   43 beta  a   -0.07621 X
  ----------------------------------------------------------------------------
  Root  40         a              0.272578485 a.u.                7.4172 eV 
  <S2> =   1.5707
  ----------------------------------------------------------------------------
     Transition Moments    X -0.00001   Y  0.00002   Z  0.00726
     Transition Moments   XX  0.00007  XY -0.00003  XZ -0.43414
     Transition Moments   YY  0.00005  YZ -0.18818  ZZ  0.00002
     Dipole Oscillator Strength                    0.0000095739
     Electric Quadrupole                           0.0000000241
     Magnetic Dipole                               0.0000000031
     Total Oscillator Strength                     0.0000096012
 
     Occ.   19 alpha a   ---  Virt.   27 alpha a   -0.90227 X
     Occ.   19 alpha a   ---  Virt.   38 alpha a    0.08684 X
     Occ.   19 beta  a   ---  Virt.   27 beta  a   -0.19965 X
     Occ.   20 beta  a   ---  Virt.   28 beta  a    0.35282 X
 
              Target root =      1
          Target symmetry = none
      Ground state energy =   -231.646295146757
        Excitation energy =      0.106283365232
     Excited state energy =   -231.540011781525
 
  stored tddft:energy   -231.540011781525     

 Task  times  cpu:     2923.4s     wall:     3017.1s
 
 
                                NWChem Input Module
                                -------------------
 
 
 Summary of allocated global arrays
-----------------------------------
  No active global arrays



                         GA Statistics for process    0
                         ------------------------------

       create   destroy   get      put      acc     scatter   gather  read&inc
calls: 9523     9523     1.03e+07 4.03e+06 2.59e+06 5640        0      373     
number of processes/call 1.31e+00 1.75e+00 1.92e+00 0.00e+00 0.00e+00
bytes total:             9.45e+10 1.09e+10 9.84e+10 6.26e+04 0.00e+00 2.98e+03
bytes remote:            7.08e+10 1.10e+09 9.39e+10 0.00e+00 0.00e+00 0.00e+00
Max memory consumed for GA by this process: 205086464 bytes
 
MA_summarize_allocated_blocks: starting scan ...
MA_summarize_allocated_blocks: scan completed: 0 heap blocks, 0 stack blocks
MA usage statistics:

	allocation statistics:
					      heap	     stack
					      ----	     -----
	current number of blocks	         0	         0
	maximum number of blocks	        20	        52
	current total bytes		         0	         0
	maximum total bytes		   1165984	  68276424
	maximum total K-bytes		      1166	     68277
	maximum total M-bytes		         2	        69
 
 
                                     CITATION
                                     --------
                Please cite the following reference when publishing
                           results obtained with NWChem:
 
                 M. Valiev, E.J. Bylaska, N. Govind, K. Kowalski,
              T.P. Straatsma, H.J.J. van Dam, D. Wang, J. Nieplocha,
                        E. Apra, T.L. Windus, W.A. de Jong
                 "NWChem: a comprehensive and scalable open-source
                  solution for large scale molecular simulations"
                      Comput. Phys. Commun. 181, 1477 (2010)
                           doi:10.1016/j.cpc.2010.04.018
 
                                      AUTHORS
                                      -------
          E. Apra, E. J. Bylaska, W. A. de Jong, N. Govind, K. Kowalski,
       T. P. Straatsma, M. Valiev, H. J. J. van Dam, D. Wang, T. L. Windus,
        J. Hammond, J. Autschbach, K. Bhaskaran-Nair, J. Brabec, K. Lopata,
    S. A. Fischer, S. Krishnamoorthy, M. Jacquelin, W. Ma, M. Klemm, O. Villa,
      Y. Chen, V. Anisimov, F. Aquino, S. Hirata, M. T. Hackler, V. Konjkov,
            D. Mejia-Rodriguez, T. Risthaus, M. Malagoli, A. Marenich,
   A. Otero-de-la-Roza, J. Mullin, P. Nichols, R. Peverati, J. Pittner, Y. Zhao,
        P.-D. Fan, A. Fonari, M. J. Williamson, R. J. Harrison, J. R. Rehr,
      M. Dupuis, D. Silverstein, D. M. A. Smith, J. Nieplocha, V. Tipparaju,
    M. Krishnan, B. E. Van Kuiken, A. Vazquez-Mayagoitia, L. Jensen, M. Swart,
      Q. Wu, T. Van Voorhis, A. A. Auer, M. Nooijen, L. D. Crosby, E. Brown,
      G. Cisneros, G. I. Fann, H. Fruchtl, J. Garza, K. Hirao, R. A. Kendall,
      J. A. Nichols, K. Tsemekhman, K. Wolinski, J. Anchell, D. E. Bernholdt,
      P. Borowski, T. Clark, D. Clerc, H. Dachsel, M. J. O. Deegan, K. Dyall,
    D. Elwood, E. Glendening, M. Gutowski, A. C. Hess, J. Jaffe, B. G. Johnson,
     J. Ju, R. Kobayashi, R. Kutteh, Z. Lin, R. Littlefield, X. Long, B. Meng,
      T. Nakajima, S. Niu, L. Pollack, M. Rosing, K. Glaesemann, G. Sandrone,
      M. Stave, H. Taylor, G. Thomas, J. H. van Lenthe, A. T. Wong, Z. Zhang.

 Total times  cpu:     2923.4s     wall:     3017.3s
