 argument  1 = /storage/home/j/jbb5516/normalModes/mode1626.15-p.nw
 


============================== echo of input deck ==============================
echo
start

title "None"

geometry
C    -0.08939255    1.38818311    0.00000005
C    -1.26619211    0.69176935   -0.00000002
C    -1.16845766   -0.70431267   -0.00000002
C     0.08485133   -1.31586710    0.00000004
C     1.24549329   -0.55315124   -0.00000001
C     1.17182115    0.84423004    0.00000005
H    -2.23180126    1.17937359   -0.00000010
H    -2.06754736   -1.30738486   -0.00000009
H     0.14851160   -2.39552619    0.00000000
H     2.21482967   -1.03487864   -0.00000013
H     2.06591656    1.45322387   -0.00000010
symmetry c1
end

basis spherical
 * library "aug-cc-pvtz"
end

dft
 direct
 mult 2
 iterations 500
 xc b3lyp
end

tddft
 nroots 40
 notriplet
 algorithm 1
end
task tddft energy
================================================================================


                                         
                                         
 
 
              Northwest Computational Chemistry Package (NWChem) 6.8
              ------------------------------------------------------
 
 
                    Environmental Molecular Sciences Laboratory
                       Pacific Northwest National Laboratory
                                Richland, WA 99352
 
                              Copyright (c) 1994-2017
                       Pacific Northwest National Laboratory
                            Battelle Memorial Institute
 
             NWChem is an open-source computational chemistry package
                        distributed under the terms of the
                      Educational Community License (ECL) 2.0
             A copy of the license is included with this distribution
                              in the LICENSE.TXT file
 
                                  ACKNOWLEDGMENT
                                  --------------

            This software and its documentation were developed at the
            EMSL at Pacific Northwest National Laboratory, a multiprogram
            national laboratory, operated for the U.S. Department of Energy
            by Battelle under Contract Number DE-AC05-76RL01830. Support
            for this work was provided by the Department of Energy Office
            of Biological and Environmental Research, Office of Basic
            Energy Sciences, and the Office of Advanced Scientific Computing.


           Job information
           ---------------

    hostname        = comp-sc-0394.acib.production.int.aci.ics.psu.edu
    program         = /gpfs/group/lxj18/default/jeffprograms/nwchem-6.8.1/bin/LINUX64/nwchem
    date            = Sun Sep 20 17:36:39 2020

    compiled        = Wed_Oct_03_14:08:39_2018
    source          = /gpfs/group/lxj18/default/jeffprograms/nwchem-6.8.1
    nwchem branch   = 6.8.1
    nwchem revision = v6.8-143-gdb0d964
    ga revision     = 5.6.5
    use scalapack   = F
    input           = /storage/home/j/jbb5516/normalModes/mode1626.15-p.nw
    prefix          = mode1626.15-p.
    data base       = ./mode1626.15-p.db
    status          = startup
    nproc           =       20
    time left       =     -1s



           Memory information
           ------------------

    heap     =   13107196 doubles =    100.0 Mbytes
    stack    =   13107201 doubles =    100.0 Mbytes
    global   =   26214400 doubles =    200.0 Mbytes (distinct from heap & stack)
    total    =   52428797 doubles =    400.0 Mbytes
    verify   = yes
    hardfail = no 


           Directory information
           ---------------------
 
  0 permanent = .
  0 scratch   = .
 
 
 
 
                                NWChem Input Module
                                -------------------
 
 
                                       None
                                       ----

 Scaling coordinates for geometry "geometry" by  1.889725989
 (inverse scale =  0.529177249)

 Turning off AUTOSYM since
 SYMMETRY directive was detected!
 

          ------
          auto-z
          ------
 
 
                             Geometry "geometry" -> ""
                             -------------------------
 
 Output coordinates in angstroms (scale by  1.889725989 to convert to a.u.)
 
  No.       Tag          Charge          X              Y              Z
 ---- ---------------- ---------- -------------- -------------- --------------
    1 C                    6.0000    -0.08935962     1.38818514     0.00000005
    2 C                    6.0000    -1.26615918     0.69177138    -0.00000002
    3 C                    6.0000    -1.16842473    -0.70431064    -0.00000002
    4 C                    6.0000     0.08488426    -1.31586507     0.00000004
    5 C                    6.0000     1.24552622    -0.55314921    -0.00000001
    6 C                    6.0000     1.17185408     0.84423207     0.00000005
    7 H                    1.0000    -2.23176833     1.17937562    -0.00000010
    8 H                    1.0000    -2.06751443    -1.30738283    -0.00000009
    9 H                    1.0000     0.14854453    -2.39552416    -0.00000000
   10 H                    1.0000     2.21486260    -1.03487661    -0.00000013
   11 H                    1.0000     2.06594949     1.45322590    -0.00000010
 
      Atomic Mass 
      ----------- 
 
      C                 12.000000
      H                  1.007825
 

 Effective nuclear repulsion energy (a.u.)     195.0641695157

            Nuclear Dipole moment (a.u.) 
            ----------------------------
        X                 Y               Z
 ---------------- ---------------- ----------------
     0.0000000000     0.0000000000     0.0000000000
 


                                Z-matrix (autoz)
                                -------- 

 Units are Angstrom for bonds and degrees for angles
 
      Type          Name      I     J     K     L     M      Value
      ----------- --------  ----- ----- ----- ----- ----- ----------
    1 Stretch                  1     2                       1.36742
    2 Stretch                  1     6                       1.37352
    3 Stretch                  2     3                       1.39950
    4 Stretch                  2     7                       1.08174
    5 Stretch                  3     4                       1.39455
    6 Stretch                  3     8                       1.08262
    7 Stretch                  4     5                       1.38882
    8 Stretch                  4     9                       1.08153
    9 Stretch                  5     6                       1.39932
   10 Stretch                  5    10                       1.08244
   11 Stretch                  6    11                       1.08179
   12 Bend                     1     2     3               116.61193
   13 Bend                     1     2     7               122.59110
   14 Bend                     1     6     5               116.34814
   15 Bend                     1     6    11               122.40989
   16 Bend                     2     1     6               126.05332
   17 Bend                     2     3     4               120.01468
   18 Bend                     2     3     8               119.84755
   19 Bend                     3     2     7               120.79696
   20 Bend                     3     4     5               120.67894
   21 Bend                     3     4     9               119.38459
   22 Bend                     4     3     8               120.13778
   23 Bend                     4     5     6               120.29299
   24 Bend                     4     5    10               120.26326
   25 Bend                     5     4     9               119.93647
   26 Bend                     5     6    11               121.24196
   27 Bend                     6     5    10               119.44375
   28 Torsion                  1     2     3     4           0.00000
   29 Torsion                  1     2     3     8        -180.00000
   30 Torsion                  1     6     5     4           0.00000
   31 Torsion                  1     6     5    10         180.00000
   32 Torsion                  2     1     6     5           0.00000
   33 Torsion                  2     1     6    11         180.00000
   34 Torsion                  2     3     4     5           0.00000
   35 Torsion                  2     3     4     9        -180.00000
   36 Torsion                  3     2     1     6           0.00000
   37 Torsion                  3     4     5     6           0.00000
   38 Torsion                  3     4     5    10        -180.00000
   39 Torsion                  4     3     2     7         180.00000
   40 Torsion                  4     5     6    11        -180.00000
   41 Torsion                  5     4     3     8         180.00000
   42 Torsion                  6     1     2     7        -180.00000
   43 Torsion                  6     5     4     9        -180.00000
   44 Torsion                  7     2     3     8           0.00000
   45 Torsion                  8     3     4     9           0.00000
   46 Torsion                  9     4     5    10           0.00000
   47 Torsion                 10     5     6    11           0.00000
 
 
            XYZ format geometry
            -------------------
    11
 geometry
 C                    -0.08935962     1.38818514     0.00000005
 C                    -1.26615918     0.69177138    -0.00000002
 C                    -1.16842473    -0.70431064    -0.00000002
 C                     0.08488426    -1.31586507     0.00000004
 C                     1.24552622    -0.55314921    -0.00000001
 C                     1.17185408     0.84423207     0.00000005
 H                    -2.23176833     1.17937562    -0.00000010
 H                    -2.06751443    -1.30738283    -0.00000009
 H                     0.14854453    -2.39552416    -0.00000000
 H                     2.21486260    -1.03487661    -0.00000013
 H                     2.06594949     1.45322590    -0.00000010
 
 ==============================================================================
                                internuclear distances
 ------------------------------------------------------------------------------
       center one      |      center two      | atomic units |  angstroms
 ------------------------------------------------------------------------------
    2 C                |   1 C                |     2.58406  |     1.36742
    3 C                |   2 C                |     2.64467  |     1.39950
    4 C                |   3 C                |     2.63533  |     1.39455
    5 C                |   4 C                |     2.62449  |     1.38882
    6 C                |   1 C                |     2.59557  |     1.37352
    6 C                |   5 C                |     2.64434  |     1.39932
    7 H                |   2 C                |     2.04419  |     1.08174
    8 H                |   3 C                |     2.04585  |     1.08262
    9 H                |   4 C                |     2.04380  |     1.08153
   10 H                |   5 C                |     2.04551  |     1.08244
   11 H                |   6 C                |     2.04430  |     1.08179
 ------------------------------------------------------------------------------
                         number of included internuclear distances:         11
 ==============================================================================



 ==============================================================================
                                 internuclear angles
 ------------------------------------------------------------------------------
        center 1       |       center 2       |       center 3       |  degrees
 ------------------------------------------------------------------------------
    2 C                |   1 C                |   6 C                |   126.05
    1 C                |   2 C                |   3 C                |   116.61
    1 C                |   2 C                |   7 H                |   122.59
    3 C                |   2 C                |   7 H                |   120.80
    2 C                |   3 C                |   4 C                |   120.01
    2 C                |   3 C                |   8 H                |   119.85
    4 C                |   3 C                |   8 H                |   120.14
    3 C                |   4 C                |   5 C                |   120.68
    3 C                |   4 C                |   9 H                |   119.38
    5 C                |   4 C                |   9 H                |   119.94
    4 C                |   5 C                |   6 C                |   120.29
    4 C                |   5 C                |  10 H                |   120.26
    6 C                |   5 C                |  10 H                |   119.44
    1 C                |   6 C                |   5 C                |   116.35
    1 C                |   6 C                |  11 H                |   122.41
    5 C                |   6 C                |  11 H                |   121.24
 ------------------------------------------------------------------------------
                            number of included internuclear angles:         16
 ==============================================================================





 Summary of "ao basis" -> "" (spherical)
 ------------------------------------------------------------------------------
       Tag                 Description            Shells   Functions and Types
 ---------------- ------------------------------  ------  ---------------------
 *                        aug-cc-pvtz                 on all atoms 


 
                                 NWChem DFT Module
                                 -----------------
 
 
                                       None
 
 
                      Basis "ao basis" -> "ao basis" (spherical)
                      -----
  C (Carbon)
  ----------
            Exponent  Coefficients 
       -------------- ---------------------------------------------------------
  1 S  8.23600000E+03  0.000531
  1 S  1.23500000E+03  0.004108
  1 S  2.80800000E+02  0.021087
  1 S  7.92700000E+01  0.081853
  1 S  2.55900000E+01  0.234817
  1 S  8.99700000E+00  0.434401
  1 S  3.31900000E+00  0.346129
  1 S  3.64300000E-01 -0.008983
 
  2 S  8.23600000E+03 -0.000113
  2 S  1.23500000E+03 -0.000878
  2 S  2.80800000E+02 -0.004540
  2 S  7.92700000E+01 -0.018133
  2 S  2.55900000E+01 -0.055760
  2 S  8.99700000E+00 -0.126895
  2 S  3.31900000E+00 -0.170352
  2 S  3.64300000E-01  0.598684
 
  3 S  9.05900000E-01  1.000000
 
  4 S  1.28500000E-01  1.000000
 
  5 S  4.40200000E-02  1.000000
 
  6 P  1.87100000E+01  0.014031
  6 P  4.13300000E+00  0.086866
  6 P  1.20000000E+00  0.290216
 
  7 P  3.82700000E-01  1.000000
 
  8 P  1.20900000E-01  1.000000
 
  9 P  3.56900000E-02  1.000000
 
 10 D  1.09700000E+00  1.000000
 
 11 D  3.18000000E-01  1.000000
 
 12 D  1.00000000E-01  1.000000
 
 13 F  7.61000000E-01  1.000000
 
 14 F  2.68000000E-01  1.000000
 
  H (Hydrogen)
  ------------
            Exponent  Coefficients 
       -------------- ---------------------------------------------------------
  1 S  3.38700000E+01  0.006068
  1 S  5.09500000E+00  0.045308
  1 S  1.15900000E+00  0.202822
 
  2 S  3.25800000E-01  1.000000
 
  3 S  1.02700000E-01  1.000000
 
  4 S  2.52600000E-02  1.000000
 
  5 P  1.40700000E+00  1.000000
 
  6 P  3.88000000E-01  1.000000
 
  7 P  1.02000000E-01  1.000000
 
  8 D  1.05700000E+00  1.000000
 
  9 D  2.47000000E-01  1.000000
 


 Summary of "ao basis" -> "ao basis" (spherical)
 ------------------------------------------------------------------------------
       Tag                 Description            Shells   Functions and Types
 ---------------- ------------------------------  ------  ---------------------
 C                        aug-cc-pvtz               14       46   5s4p3d2f
 H                        aug-cc-pvtz                9       23   4s3p2d




 Summary of "ao basis" -> "ao basis" (spherical)
 ------------------------------------------------------------------------------
       Tag                 Description            Shells   Functions and Types
 ---------------- ------------------------------  ------  ---------------------
 C                        aug-cc-pvtz               14       46   5s4p3d2f
 H                        aug-cc-pvtz                9       23   4s3p2d


  Caching 1-el integrals 
 
            General Information
            -------------------
          SCF calculation type: DFT
          Wavefunction type:  spin polarized.
          No. of atoms     :    11
          No. of electrons :    41
           Alpha electrons :    21
            Beta electrons :    20
          Charge           :     0
          Spin multiplicity:     2
          Use of symmetry is: off; symmetry adaption is: off
          Maximum number of iterations: 500
          This is a Direct SCF calculation.
          AO basis - number of functions:   391
                     number of shells:   129
          Convergence on energy requested:  1.00D-06
          Convergence on density requested:  1.00D-05
          Convergence on gradient requested:  5.00D-04
 
              XC Information
              --------------
                         B3LYP Method XC Potential
                     Hartree-Fock (Exact) Exchange  0.200          
                        Slater Exchange Functional  0.800 local    
                    Becke 1988 Exchange Functional  0.720 non-local
              Lee-Yang-Parr Correlation Functional  0.810          
                  VWN I RPA Correlation Functional  0.190 local    
 
             Grid Information
             ----------------
          Grid used for XC integration:  medium    
          Radial quadrature: Mura-Knowles        
          Angular quadrature: Lebedev. 
          Tag              B.-S. Rad. Rad. Pts. Rad. Cut. Ang. Pts.
          ---              ---------- --------- --------- ---------
          C                   0.70       49          15.0       434
          H                   0.35       45          17.0       434
          Grid pruning is: on 
          Number of quadrature shells:   519
          Spatial weights used:  Erf1
 
          Convergence Information
          -----------------------
          Convergence aids based upon iterative change in 
          total energy or number of iterations. 
          Levelshifting, if invoked, occurs when the 
          HOMO/LUMO gap drops below (HL_TOL):  1.00D-02
          DIIS, if invoked, will attempt to extrapolate 
          using up to (NFOCK): 10 stored Fock matrices.

                    Damping( 0%)  Levelshifting(0.5)       DIIS
                  --------------- ------------------- ---------------
          dE  on:    start            ASAP                start   
          dE off:    2 iters        500 iters           500 iters 

 
      Screening Tolerance Information
      -------------------------------
          Density screening/tol_rho:  1.00D-10
          AO Gaussian exp screening on grid/accAOfunc:  14
          CD Gaussian exp screening on grid/accCDfunc:  20
          XC Gaussian exp screening on grid/accXCfunc:  20
          Schwarz screening/accCoul:  1.00D-08

 
 WARNING : Found     7 linear dependencies 
 S eigenvalue threshold:     1.00000E-05
 Smallest S eigenvalue :     1.46351E-06
 Largest  S eigenvalue :     7.76674E-06
 

 !! The overlap matrix has   7 vectors deemed linearly dependent with
    eigenvalues:
 1.46D-06 2.24D-06 2.83D-06 3.54D-06 5.27D-06 5.95D-06 7.77D-06
 
 
      Superposition of Atomic Density Guess
      -------------------------------------
 
 Sum of atomic energies:        -228.52307259
 
      Non-variational initial energy
      ------------------------------

 Total energy =    -232.667237
 1-e energy   =    -691.328757
 2-e energy   =     263.597351
 HOMO         =      -0.183325
 LUMO         =      -0.022300
 
   Time after variat. SCF:      9.7
   Time prior to 1st pass:      9.7

 Grid_pts file          = ./mode1626.15-p.gridpts.00
 Record size in doubles =  12289        No. of grid_pts per rec  =   3070
 Max. records in memory =      6        Max. recs in file   = 220523026

 Grid integrated density:      40.999767605934
 Requested integration accuracy:   0.10E-05

           Memory utilization after 1st SCF pass: 
           Heap Space remaining (MW):       12.96            12961276
          Stack Space remaining (MW):       13.10            13103684

   convergence    iter        energy       DeltaE   RMS-Dens  Diis-err    time
 ---------------- ----- ----------------- --------- --------- ---------  ------
 d= 0,ls=0.0,diis     1   -231.5811035182 -4.27D+02  6.01D-02  2.09D-01    19.6
                                                     6.80D-02  1.96D-01
 d= 0,ls=0.0,diis     2   -231.6398616286 -5.88D-02  5.91D-02  1.21D-02    29.7
                                                     6.69D-02  1.24D-02
 d= 0,ls=0.0,diis     3   -231.6445677608 -4.71D-03  1.25D-03  3.47D-03    39.7
                                                     1.36D-03  3.52D-03
 d= 0,ls=0.0,diis     4   -231.6457432124 -1.18D-03  2.02D-04  1.11D-03    49.9
                                                     2.06D-04  1.05D-03
 d= 0,ls=0.0,diis     5   -231.6462551383 -5.12D-04  3.35D-05  4.19D-05    60.0
                                                     3.06D-05  4.79D-05
  Resetting Diis
 d= 0,ls=0.0,diis     6   -231.6462827795 -2.76D-05  1.10D-05  7.93D-06    70.1
                                                     1.06D-05  6.42D-06
 d= 0,ls=0.0,diis     7   -231.6462890147 -6.24D-06  7.33D-06  2.16D-06    80.3
                                                     6.56D-06  2.41D-06
 d= 0,ls=0.0,diis     8   -231.6462900356 -1.02D-06  3.06D-06  5.60D-06    90.4
                                                     2.73D-06  4.97D-06
 d= 0,ls=0.0,diis     9   -231.6462934000 -3.36D-06  3.79D-06  3.85D-07   100.6
                                                     3.36D-06  3.25D-07
 d= 0,ls=0.0,diis    10   -231.6462947199 -1.32D-06  2.10D-06  1.85D-07   110.7
                                                     2.41D-06  2.88D-07
 d= 0,ls=0.0,diis    11   -231.6462951437 -4.24D-07  5.93D-07  1.34D-08   120.9
                                                     5.02D-07  9.33D-09


         Total DFT energy =     -231.646295143704
      One electron energy =     -696.561228601231
           Coulomb energy =      304.259964027272
    Exchange-Corr. energy =      -34.409200085406
 Nuclear repulsion energy =      195.064169515660

 Numeric. integr. density =       40.999984403580

     Total iterative time =    111.1s


 
                    DFT Final Alpha Molecular Orbital Analysis
                    ------------------------------------------
 
 Vector    1  Occ=1.000000D+00  E=-1.020524D+01
              MO Center= -8.9D-02,  1.4D+00,  4.8D-08, r^2= 3.0D-02
   Bfn.  Coefficient  Atom+Function         Bfn.  Coefficient  Atom+Function  
  ----- ------------  ---------------      ----- ------------  ---------------
     1      0.984164   1 C  s                 3      0.058856   1 C  s         
    50     -0.038781   2 C  s               371      0.038085  11 H  s         
   143      0.037870   4 C  s               234     -0.037993   6 C  s         
   279      0.037777   7 H  s                51     -0.031507   2 C  s         
   235     -0.029806   6 C  s                47      0.025252   2 C  s         
 
 Vector    2  Occ=1.000000D+00  E=-1.019207D+01
              MO Center= -1.2D+00, -6.8D-01, -2.4D-08, r^2= 7.4D-02
   Bfn.  Coefficient  Atom+Function         Bfn.  Coefficient  Atom+Function  
  ----- ------------  ---------------      ----- ------------  ---------------
    93      0.974805   3 C  s                47      0.144062   2 C  s         
   142     -0.068998   4 C  s               302      0.058725   8 H  s         
    95      0.057943   3 C  s               234      0.054702   6 C  s         
   371     -0.043991  11 H  s               235      0.043244   6 C  s         
   139      0.040925   4 C  s               325      0.038013   9 H  s         
 
 Vector    3  Occ=1.000000D+00  E=-1.019158D+01
              MO Center=  1.2D+00, -4.0D-01, -8.1D-09, r^2= 2.2D-01
   Bfn.  Coefficient  Atom+Function         Bfn.  Coefficient  Atom+Function  
  ----- ------------  ---------------      ----- ------------  ---------------
   185      0.930188   5 C  s               231      0.326621   6 C  s         
   142     -0.071774   4 C  s               348      0.061190  10 H  s         
   187      0.055930   5 C  s                50      0.052942   2 C  s         
   279     -0.043982   7 H  s                51      0.042598   2 C  s         
   139      0.042038   4 C  s               189     -0.040560   5 C  s         
 
 Vector    4  Occ=1.000000D+00  E=-1.019063D+01
              MO Center=  1.2D+00,  6.9D-01,  4.1D-08, r^2= 2.2D-01
   Bfn.  Coefficient  Atom+Function         Bfn.  Coefficient  Atom+Function  
  ----- ------------  ---------------      ----- ------------  ---------------
   231      0.929876   6 C  s               185     -0.323371   5 C  s         
   371      0.055530  11 H  s               233      0.053721   6 C  s         
    97      0.036931   3 C  s                96      0.036683   3 C  s         
   143      0.034691   4 C  s                12     -0.029821   1 C  px        
   325     -0.028838   9 H  s               188     -0.027930   5 C  s         
 
 Vector    5  Occ=1.000000D+00  E=-1.019002D+01
              MO Center= -1.3D+00,  6.6D-01, -2.4D-08, r^2= 7.1D-02
   Bfn.  Coefficient  Atom+Function         Bfn.  Coefficient  Atom+Function  
  ----- ------------  ---------------      ----- ------------  ---------------
    47      0.974877   2 C  s                93     -0.141495   3 C  s         
   279      0.059756   7 H  s                49      0.056938   2 C  s         
   189      0.040858   5 C  s               188      0.034416   5 C  s         
    97     -0.033508   3 C  s                51     -0.031980   2 C  s         
   142     -0.031286   4 C  s                12      0.031087   1 C  px        
 
 Vector    6  Occ=1.000000D+00  E=-1.018433D+01
              MO Center=  8.5D-02, -1.3D+00,  3.9D-08, r^2= 3.5D-02
   Bfn.  Coefficient  Atom+Function         Bfn.  Coefficient  Atom+Function  
  ----- ------------  ---------------      ----- ------------  ---------------
   139      0.984272   4 C  s               141      0.057791   4 C  s         
    96     -0.045860   3 C  s               188     -0.045915   5 C  s         
   325      0.045996   9 H  s               143     -0.043490   4 C  s         
   185     -0.042151   5 C  s                 4      0.040387   1 C  s         
    93     -0.037464   3 C  s               151      0.035982   4 C  py        
 
 Vector    7  Occ=1.000000D+00  E=-8.724628D-01
              MO Center= -7.4D-03,  9.9D-02,  4.8D-09, r^2= 2.0D+00
   Bfn.  Coefficient  Atom+Function         Bfn.  Coefficient  Atom+Function  
  ----- ------------  ---------------      ----- ------------  ---------------
     2      0.214060   1 C  s                48      0.203429   2 C  s         
   232      0.201891   6 C  s               186      0.196081   5 C  s         
    94      0.195099   3 C  s               140      0.188224   4 C  s         
    50      0.091920   2 C  s                96      0.088469   3 C  s         
   234      0.088611   6 C  s               188      0.087650   5 C  s         
 
 Vector    8  Occ=1.000000D+00  E=-7.627694D-01
              MO Center= -4.7D-03,  9.9D-02,  2.4D-09, r^2= 2.8D+00
   Bfn.  Coefficient  Atom+Function         Bfn.  Coefficient  Atom+Function  
  ----- ------------  ---------------      ----- ------------  ---------------
    48      0.259571   2 C  s               186     -0.252990   5 C  s         
   232     -0.241173   6 C  s                94      0.233692   3 C  s         
    50      0.149361   2 C  s               234     -0.142207   6 C  s         
   279     -0.133448   7 H  s               371      0.124740  11 H  s         
   150     -0.115617   4 C  px               97      0.110504   3 C  s         
 
 Vector    9  Occ=1.000000D+00  E=-7.536995D-01
              MO Center=  9.2D-03, -1.5D-01, -2.8D-08, r^2= 2.6D+00
   Bfn.  Coefficient  Atom+Function         Bfn.  Coefficient  Atom+Function  
  ----- ------------  ---------------      ----- ------------  ---------------
   140     -0.300299   4 C  s                 2      0.277972   1 C  s         
    94     -0.163921   3 C  s               232      0.163384   6 C  s         
   142     -0.147262   4 C  s               186     -0.133183   5 C  s         
    48      0.132096   2 C  s                96     -0.112128   3 C  s         
   234      0.106059   6 C  s                 4      0.102947   1 C  s         
 
 Vector   10  Occ=1.000000D+00  E=-6.187532D-01
              MO Center= -8.2D-03,  3.9D-02, -1.0D-08, r^2= 3.6D+00
   Bfn.  Coefficient  Atom+Function         Bfn.  Coefficient  Atom+Function  
  ----- ------------  ---------------      ----- ------------  ---------------
    94     -0.212734   3 C  s               186      0.204228   5 C  s         
   232     -0.202829   6 C  s                48      0.195930   2 C  s         
   234     -0.188152   6 C  s                50      0.178575   2 C  s         
    96     -0.151887   3 C  s               188      0.141975   5 C  s         
     6     -0.127232   1 C  px              144      0.116907   4 C  px        
 
 Vector   11  Occ=1.000000D+00  E=-6.035376D-01
              MO Center=  8.8D-03, -8.6D-02, -3.2D-08, r^2= 3.5D+00
   Bfn.  Coefficient  Atom+Function         Bfn.  Coefficient  Atom+Function  
  ----- ------------  ---------------      ----- ------------  ---------------
   142      0.258169   4 C  s                 2      0.238836   1 C  s         
   140      0.218667   4 C  s                 4      0.198596   1 C  s         
   186     -0.144012   5 C  s                94     -0.132557   3 C  s         
    50     -0.126650   2 C  s               188     -0.122556   5 C  s         
   234     -0.118507   6 C  s                96     -0.115807   3 C  s         
 
 Vector   12  Occ=1.000000D+00  E=-5.277280D-01
              MO Center=  1.2D-02, -1.5D-01, -1.1D-08, r^2= 4.1D+00
   Bfn.  Coefficient  Atom+Function         Bfn.  Coefficient  Atom+Function  
  ----- ------------  ---------------      ----- ------------  ---------------
   148      0.159287   4 C  py              145      0.138870   4 C  py        
   324     -0.126840   9 H  s                55      0.105008   2 C  px        
   240     -0.104455   6 C  py              323     -0.100378   9 H  s         
   237     -0.095886   6 C  py              193     -0.094957   5 C  px        
   370     -0.094745  11 H  s               278     -0.094212   7 H  s         
 
 Vector   13  Occ=1.000000D+00  E=-4.646687D-01
              MO Center= -8.6D-02,  7.8D-02, -1.2D-08, r^2= 2.9D+00
   Bfn.  Coefficient  Atom+Function         Bfn.  Coefficient  Atom+Function  
  ----- ------------  ---------------      ----- ------------  ---------------
     9      0.180637   1 C  px                6      0.167484   1 C  px        
   147      0.164016   4 C  px              144      0.151426   4 C  px        
    55     -0.144645   2 C  px              102      0.137844   3 C  py        
   193     -0.136073   5 C  px               52     -0.130680   2 C  px        
    56     -0.123336   2 C  py               99      0.123567   3 C  py        
 
 Vector   14  Occ=1.000000D+00  E=-4.630222D-01
              MO Center=  8.9D-02, -1.3D-01, -3.1D-08, r^2= 4.6D+00
   Bfn.  Coefficient  Atom+Function         Bfn.  Coefficient  Atom+Function  
  ----- ------------  ---------------      ----- ------------  ---------------
     2      0.169437   1 C  s               101     -0.149018   3 C  px        
   301      0.137658   8 H  s                98     -0.136932   3 C  px        
   239     -0.131923   6 C  px              104     -0.123667   3 C  px        
   140     -0.123754   4 C  s               236     -0.123957   6 C  px        
   347      0.123974  10 H  s               188      0.119056   5 C  s         
 
 Vector   15  Occ=1.000000D+00  E=-4.399778D-01
              MO Center= -1.7D-02,  2.1D-01, -2.6D-08, r^2= 4.0D+00
   Bfn.  Coefficient  Atom+Function         Bfn.  Coefficient  Atom+Function  
  ----- ------------  ---------------      ----- ------------  ---------------
   240      0.143446   6 C  py              102      0.139075   3 C  py        
   237      0.132408   6 C  py              278     -0.132387   7 H  s         
    55      0.130354   2 C  px               99      0.130064   3 C  py        
   370      0.130498  11 H  s                56     -0.129179   2 C  py        
   194     -0.126994   5 C  py               53     -0.120075   2 C  py        
 
 Vector   16  Occ=1.000000D+00  E=-3.990638D-01
              MO Center=  5.6D-02, -7.8D-01, -9.7D-09, r^2= 3.3D+00
   Bfn.  Coefficient  Atom+Function         Bfn.  Coefficient  Atom+Function  
  ----- ------------  ---------------      ----- ------------  ---------------
   148      0.233599   4 C  py              145      0.209296   4 C  py        
   324     -0.198544   9 H  s               151      0.172801   4 C  py        
   323     -0.153992   9 H  s                10      0.138290   1 C  py        
    13      0.120704   1 C  py              240      0.114953   6 C  py        
    56      0.110178   2 C  py                7      0.107588   1 C  py        
 
 Vector   17  Occ=1.000000D+00  E=-3.837031D-01
              MO Center= -8.4D-03,  1.2D-01, -5.8D-08, r^2= 2.7D+00
   Bfn.  Coefficient  Atom+Function         Bfn.  Coefficient  Atom+Function  
  ----- ------------  ---------------      ----- ------------  ---------------
    11      0.173447   1 C  pz               57      0.156768   2 C  pz        
   241      0.156036   6 C  pz              103      0.151983   3 C  pz        
   195      0.152469   5 C  pz              149      0.145898   4 C  pz        
     8      0.136822   1 C  pz               54      0.126109   2 C  pz        
   238      0.125446   6 C  pz              100      0.121519   3 C  pz        
 
 Vector   18  Occ=1.000000D+00  E=-3.659745D-01
              MO Center=  7.9D-03, -1.4D-01, -2.8D-08, r^2= 4.1D+00
   Bfn.  Coefficient  Atom+Function         Bfn.  Coefficient  Atom+Function  
  ----- ------------  ---------------      ----- ------------  ---------------
   147     -0.169625   4 C  px              101      0.166437   3 C  px        
   193      0.164056   5 C  px              144     -0.160122   4 C  px        
    98      0.150586   3 C  px                9      0.149065   1 C  px        
   190      0.148219   5 C  px                6      0.141299   1 C  px        
   196      0.135588   5 C  px              104      0.133827   3 C  px        
 
 Vector   19  Occ=1.000000D+00  E=-2.688407D-01
              MO Center=  3.7D-02,  6.5D-03,  1.2D-07, r^2= 3.0D+00
   Bfn.  Coefficient  Atom+Function         Bfn.  Coefficient  Atom+Function  
  ----- ------------  ---------------      ----- ------------  ---------------
    11      0.212434   1 C  pz              195     -0.213400   5 C  pz        
   149     -0.206614   4 C  pz               57      0.201446   2 C  pz        
   192     -0.170311   5 C  pz                8      0.167083   1 C  pz        
   146     -0.165190   4 C  pz               54      0.161004   2 C  pz        
    14      0.152493   1 C  pz              198     -0.151717   5 C  pz        
 
 Vector   20  Occ=1.000000D+00  E=-2.675467D-01
              MO Center= -3.9D-02,  4.0D-02,  2.4D-07, r^2= 3.1D+00
   Bfn.  Coefficient  Atom+Function         Bfn.  Coefficient  Atom+Function  
  ----- ------------  ---------------      ----- ------------  ---------------
   103      0.243086   3 C  pz              241     -0.234143   6 C  pz        
   100      0.193827   3 C  pz              238     -0.187292   6 C  pz        
   106      0.174646   3 C  pz              244     -0.168877   6 C  pz        
    11     -0.122650   1 C  pz              149      0.119246   4 C  pz        
    57      0.118491   2 C  pz              195     -0.116003   5 C  pz        
 
 Vector   21  Occ=1.000000D+00  E=-2.484116D-01
              MO Center= -8.6D-02,  1.3D+00,  8.3D-08, r^2= 2.3D+00
   Bfn.  Coefficient  Atom+Function         Bfn.  Coefficient  Atom+Function  
  ----- ------------  ---------------      ----- ------------  ---------------
    10      0.385952   1 C  py               13      0.337656   1 C  py        
     5      0.335242   1 C  s                 7      0.299295   1 C  py        
     4      0.279331   1 C  s                 2      0.138347   1 C  s         
   243     -0.136389   6 C  py               59     -0.133737   2 C  py        
   102      0.112775   3 C  py              194      0.111944   5 C  py        
 
 Vector   22  Occ=0.000000D+00  E=-2.606813D-02
              MO Center= -3.4D-03,  6.7D-02, -1.1D-06, r^2= 4.3D+00
   Bfn.  Coefficient  Atom+Function         Bfn.  Coefficient  Atom+Function  
  ----- ------------  ---------------      ----- ------------  ---------------
   109      0.336405   3 C  pz              247      0.329180   6 C  pz        
   201     -0.300529   5 C  pz               63     -0.296901   2 C  pz        
   244      0.236944   6 C  pz              106      0.234320   3 C  pz        
   103      0.227648   3 C  pz              241      0.228748   6 C  pz        
    60     -0.215057   2 C  pz              198     -0.211244   5 C  pz        
 
 Vector   23  Occ=0.000000D+00  E=-1.855122D-02
              MO Center=  2.3D-03, -4.9D-02, -4.3D-06, r^2= 4.3D+00
   Bfn.  Coefficient  Atom+Function         Bfn.  Coefficient  Atom+Function  
  ----- ------------  ---------------      ----- ------------  ---------------
   155      0.438387   4 C  pz               17      0.372478   1 C  pz        
   152      0.272966   4 C  pz               11      0.257902   1 C  pz        
   201     -0.258055   5 C  pz              149      0.249751   4 C  pz        
    14      0.239588   1 C  pz               63     -0.229693   2 C  pz        
     8      0.199804   1 C  pz              146      0.197431   4 C  pz        
 
 Vector   24  Occ=0.000000D+00  E=-1.011036D-02
              MO Center=  5.3D-02, -9.5D-01, -2.3D-06, r^2= 2.0D+01
   Bfn.  Coefficient  Atom+Function         Bfn.  Coefficient  Atom+Function  
  ----- ------------  ---------------      ----- ------------  ---------------
     5      1.446385   1 C  s               371     -0.982451  11 H  s         
   279     -0.970369   7 H  s               326     -0.741660   9 H  s         
   303     -0.734592   8 H  s               349     -0.726102  10 H  s         
   302     -0.655119   8 H  s               348     -0.645270  10 H  s         
   325     -0.588232   9 H  s                51      0.571322   2 C  s         
 
 Vector   25  Occ=0.000000D+00  E= 4.382140D-03
              MO Center=  2.2D-02, -2.6D-01, -9.3D-06, r^2= 2.7D+01
   Bfn.  Coefficient  Atom+Function         Bfn.  Coefficient  Atom+Function  
  ----- ------------  ---------------      ----- ------------  ---------------
   235     -2.738193   6 C  s                51      2.724048   2 C  s         
    97      2.680798   3 C  s               189     -2.665376   5 C  s         
   303      1.996022   8 H  s               349     -1.997952  10 H  s         
    15      1.866885   1 C  px              153      1.807302   4 C  px        
   280      1.539118   7 H  s               372     -1.540278  11 H  s         
 
 Vector   26  Occ=0.000000D+00  E= 8.729708D-03
              MO Center=  9.9D-04, -7.4D-02,  5.5D-05, r^2= 2.7D+01
   Bfn.  Coefficient  Atom+Function         Bfn.  Coefficient  Atom+Function  
  ----- ------------  ---------------      ----- ------------  ---------------
   143      6.243814   4 C  s               235     -4.026464   6 C  s         
    51     -3.990955   2 C  s               326      2.932258   9 H  s         
     5      2.588280   1 C  s               280     -2.385301   7 H  s         
   372     -2.390876  11 H  s               154      1.944443   4 C  py        
   246      1.903960   6 C  py               62      1.863049   2 C  py        
 
 Vector   27  Occ=0.000000D+00  E= 2.670643D-02
              MO Center= -7.8D-03,  2.4D-01, -2.3D-05, r^2= 3.1D+01
   Bfn.  Coefficient  Atom+Function         Bfn.  Coefficient  Atom+Function  
  ----- ------------  ---------------      ----- ------------  ---------------
   280      3.929033   7 H  s               372     -3.934832  11 H  s         
    51      3.655155   2 C  s               235     -3.661345   6 C  s         
   303     -3.596375   8 H  s               349      3.606950  10 H  s         
    61      2.215673   2 C  px               97     -2.202020   3 C  s         
   189      2.181003   5 C  s               199     -2.046242   5 C  px        
 
 Vector   28  Occ=0.000000D+00  E= 3.221655D-02
              MO Center=  3.4D-02, -6.2D-01, -1.2D-04, r^2= 2.9D+01
   Bfn.  Coefficient  Atom+Function         Bfn.  Coefficient  Atom+Function  
  ----- ------------  ---------------      ----- ------------  ---------------
     5      6.395650   1 C  s               326     -4.998390   9 H  s         
   303      3.730624   8 H  s               349      3.720506  10 H  s         
    97     -2.225507   3 C  s               154     -2.178815   4 C  py        
   189     -2.133342   5 C  s               199     -1.665212   5 C  px        
   245      1.645351   6 C  px               61     -1.571210   2 C  px        
 
 Vector   29  Occ=0.000000D+00  E= 4.329443D-02
              MO Center=  1.3D-02, -2.2D-01,  9.2D-06, r^2= 1.3D+01
   Bfn.  Coefficient  Atom+Function         Bfn.  Coefficient  Atom+Function  
  ----- ------------  ---------------      ----- ------------  ---------------
   155      0.598789   4 C  pz               63      0.576709   2 C  pz        
   247      0.576123   6 C  pz               17     -0.260510   1 C  pz        
   244     -0.155696   6 C  pz               60     -0.154107   2 C  pz        
   381     -0.124542  11 H  pz              289     -0.122473   7 H  pz        
   259      0.119878   6 C  d -1             77      0.108623   2 C  d  1      
 
 Vector   30  Occ=0.000000D+00  E= 5.496253D-02
              MO Center=  5.8D-03, -1.5D-01, -4.1D-05, r^2= 1.5D+01
   Bfn.  Coefficient  Atom+Function         Bfn.  Coefficient  Atom+Function  
  ----- ------------  ---------------      ----- ------------  ---------------
     5     10.706787   1 C  s               143      5.282371   4 C  s         
    51     -4.494563   2 C  s               235     -4.481128   6 C  s         
   303     -2.820078   8 H  s               349     -2.781666  10 H  s         
   326      2.060240   9 H  s                97     -1.980782   3 C  s         
   199      1.964336   5 C  px              107     -1.946312   3 C  px        
 
 Vector   31  Occ=0.000000D+00  E= 6.335025D-02
              MO Center= -4.0D-02,  6.5D-01, -1.0D-04, r^2= 2.8D+01
   Bfn.  Coefficient  Atom+Function         Bfn.  Coefficient  Atom+Function  
  ----- ------------  ---------------      ----- ------------  ---------------
     5     24.375167   1 C  s               235     -9.925929   6 C  s         
    51     -9.775523   2 C  s               143      7.618900   4 C  s         
    97     -6.618646   3 C  s               189     -6.402764   5 C  s         
   326      5.865074   9 H  s               154      4.761626   4 C  py        
   303     -4.693236   8 H  s               349     -4.671603  10 H  s         
 
 Vector   32  Occ=0.000000D+00  E= 6.574577D-02
              MO Center=  2.9D-03, -2.5D-02,  5.4D-04, r^2= 1.8D+01
   Bfn.  Coefficient  Atom+Function         Bfn.  Coefficient  Atom+Function  
  ----- ------------  ---------------      ----- ------------  ---------------
   109      0.983861   3 C  pz              201     -0.969327   5 C  pz        
   247     -0.777809   6 C  pz               63      0.762690   2 C  pz        
   169     -0.676505   4 C  d  1             31     -0.583203   1 C  d  1      
   198     -0.499408   5 C  pz               60      0.493902   2 C  pz        
   106      0.485516   3 C  pz              244     -0.482851   6 C  pz        
 
 Vector   33  Occ=0.000000D+00  E= 6.826309D-02
              MO Center= -1.2D-02,  1.9D-01, -2.7D-04, r^2= 1.8D+01
   Bfn.  Coefficient  Atom+Function         Bfn.  Coefficient  Atom+Function  
  ----- ------------  ---------------      ----- ------------  ---------------
    63      1.026066   2 C  pz              247      1.022571   6 C  pz        
   109     -0.810247   3 C  pz              201     -0.813497   5 C  pz        
   155     -0.750761   4 C  pz               14      0.629567   1 C  pz        
   152     -0.617681   4 C  pz               17      0.458628   1 C  pz        
   213     -0.450920   5 C  d -1            121     -0.404595   3 C  d -1      
 
 Vector   34  Occ=0.000000D+00  E= 7.645801D-02
              MO Center= -9.1D-03, -1.6D-01, -1.3D-04, r^2= 3.4D+01
   Bfn.  Coefficient  Atom+Function         Bfn.  Coefficient  Atom+Function  
  ----- ------------  ---------------      ----- ------------  ---------------
   235    -14.001925   6 C  s                51     13.720839   2 C  s         
    97     12.462385   3 C  s               189    -12.369794   5 C  s         
    15      7.681322   1 C  px              153      7.706624   4 C  px        
   107      4.749487   3 C  px              303      4.706826   8 H  s         
   349     -4.679427  10 H  s               199      4.470821   5 C  px        
 
 Vector   35  Occ=0.000000D+00  E= 7.792068D-02
              MO Center=  2.0D-01, -3.3D+00,  1.3D-04, r^2= 2.1D+01
   Bfn.  Coefficient  Atom+Function         Bfn.  Coefficient  Atom+Function  
  ----- ------------  ---------------      ----- ------------  ---------------
   143     18.262872   4 C  s                51    -13.624105   2 C  s         
   235    -13.253415   6 C  s               326      7.024473   9 H  s         
    62      5.746651   2 C  py              246      5.581708   6 C  py        
   154      5.263923   4 C  py              200      5.236364   5 C  py        
   108      5.181918   3 C  py              371      4.264061  11 H  s         
 
 Vector   36  Occ=0.000000D+00  E= 8.155496D-02
              MO Center= -8.0D-02,  1.4D+00,  6.8D-05, r^2= 2.8D+01
   Bfn.  Coefficient  Atom+Function         Bfn.  Coefficient  Atom+Function  
  ----- ------------  ---------------      ----- ------------  ---------------
   143     20.715745   4 C  s               235     -9.117236   6 C  s         
    51     -8.783188   2 C  s                62      5.245793   2 C  py        
   246      5.197342   6 C  py              325     -4.965654   9 H  s         
   372     -4.603077  11 H  s               280     -4.527661   7 H  s         
   326      4.503133   9 H  s               200      4.446651   5 C  py        
 
 Vector   37  Occ=0.000000D+00  E= 8.317334D-02
              MO Center=  6.2D-02, -7.3D-01, -9.9D-06, r^2= 2.2D+01
   Bfn.  Coefficient  Atom+Function         Bfn.  Coefficient  Atom+Function  
  ----- ------------  ---------------      ----- ------------  ---------------
    97      4.999339   3 C  s               189     -4.885012   5 C  s         
   235      3.171401   6 C  s                51     -3.089811   2 C  s         
   349     -2.821489  10 H  s               108      2.793390   3 C  py        
   303      2.784101   8 H  s               200     -2.681780   5 C  py        
   153      2.605397   4 C  px              188     -2.115251   5 C  s         
 
 Vector   38  Occ=0.000000D+00  E= 9.540469D-02
              MO Center= -4.9D-02,  8.8D-01,  1.3D-05, r^2= 3.1D+01
   Bfn.  Coefficient  Atom+Function         Bfn.  Coefficient  Atom+Function  
  ----- ------------  ---------------      ----- ------------  ---------------
    51     17.687897   2 C  s               235    -17.675818   6 C  s         
   280      7.219228   7 H  s               372     -7.216357  11 H  s         
    97     -6.935492   3 C  s               189      6.886463   5 C  s         
   108     -6.468805   3 C  py              303     -6.187143   8 H  s         
   349      6.214839  10 H  s               200      5.907538   5 C  py        
 
 Vector   39  Occ=0.000000D+00  E= 1.017995D-01
              MO Center=  2.7D-03,  1.1D-01, -3.3D-04, r^2= 1.9D+01
   Bfn.  Coefficient  Atom+Function         Bfn.  Coefficient  Atom+Function  
  ----- ------------  ---------------      ----- ------------  ---------------
   235    -13.822156   6 C  s                51     13.640465   2 C  s         
    97     10.971344   3 C  s               189    -10.807483   5 C  s         
    15     10.003608   1 C  px              153      9.718417   4 C  px        
   200      6.051799   5 C  py              246     -6.052800   6 C  py        
    62      5.961501   2 C  py              108     -5.968026   3 C  py        
 
 Vector   40  Occ=0.000000D+00  E= 1.064773D-01
              MO Center= -1.9D-02,  1.3D-01, -5.7D-04, r^2= 2.1D+01
   Bfn.  Coefficient  Atom+Function         Bfn.  Coefficient  Atom+Function  
  ----- ------------  ---------------      ----- ------------  ---------------
   143     18.274000   4 C  s                51    -10.111438   2 C  s         
   235     -9.761850   6 C  s                 5     -9.461663   1 C  s         
   107     -8.790161   3 C  px              199      7.961326   5 C  px        
   245     -6.974702   6 C  px              200      6.592721   5 C  py        
    61      6.555200   2 C  px              108      5.803564   3 C  py        
 
 Vector   41  Occ=0.000000D+00  E= 1.082001D-01
              MO Center= -5.5D-02,  1.6D-01, -7.1D-05, r^2= 2.2D+01
   Bfn.  Coefficient  Atom+Function         Bfn.  Coefficient  Atom+Function  
  ----- ------------  ---------------      ----- ------------  ---------------
   109     -3.599808   3 C  pz              247     -3.416990   6 C  pz        
    63      3.347136   2 C  pz              201      3.107015   5 C  pz        
   244     -0.703864   6 C  pz               60      0.685462   2 C  pz        
   106     -0.674053   3 C  pz              198      0.595379   5 C  pz        
   155      0.381370   4 C  pz               77     -0.362001   2 C  d  1      
 
 Vector   42  Occ=0.000000D+00  E= 1.089701D-01
              MO Center=  7.6D-02, -4.7D-01,  2.1D-03, r^2= 2.1D+01
   Bfn.  Coefficient  Atom+Function         Bfn.  Coefficient  Atom+Function  
  ----- ------------  ---------------      ----- ------------  ---------------
   155      5.308042   4 C  pz              201     -3.691869   5 C  pz        
   109     -3.175919   3 C  pz               17      2.504531   1 C  pz        
   152      0.981435   4 C  pz               63     -0.729484   2 C  pz        
   198     -0.654325   5 C  pz              167      0.570830   4 C  d -1      
   106     -0.550017   3 C  pz               14      0.503725   1 C  pz        
 
 Vector   43  Occ=0.000000D+00  E= 1.094999D-01
              MO Center=  1.9D-02, -4.5D-01, -1.1D-03, r^2= 2.7D+01
   Bfn.  Coefficient  Atom+Function         Bfn.  Coefficient  Atom+Function  
  ----- ------------  ---------------      ----- ------------  ---------------
   326      7.669403   9 H  s               154      7.056911   4 C  py        
   303     -6.494068   8 H  s               349     -6.456261  10 H  s         
   143     -5.605094   4 C  s               108     -4.434001   3 C  py        
    62     -4.191287   2 C  py              200     -4.180130   5 C  py        
   246     -4.100745   6 C  py                4      3.924558   1 C  s         
 
 Vector   44  Occ=0.000000D+00  E= 1.178181D-01
              MO Center= -4.2D-02,  6.5D-01, -4.2D-04, r^2= 1.4D+01
   Bfn.  Coefficient  Atom+Function         Bfn.  Coefficient  Atom+Function  
  ----- ------------  ---------------      ----- ------------  ---------------
    17      6.880145   1 C  pz               63     -6.036033   2 C  pz        
   247     -6.010862   6 C  pz              109      5.046977   3 C  pz        
   201      5.060227   5 C  pz              155     -4.824102   4 C  pz        
    14      1.235892   1 C  pz               60     -1.024602   2 C  pz        
   244     -1.016653   6 C  pz              106      0.890449   3 C  pz        
 
 Vector   45  Occ=0.000000D+00  E= 1.264069D-01
              MO Center= -2.7D-02,  2.9D-01, -2.1D-05, r^2= 2.5D+01
   Bfn.  Coefficient  Atom+Function         Bfn.  Coefficient  Atom+Function  
  ----- ------------  ---------------      ----- ------------  ---------------
    51      7.584884   2 C  s               235     -7.591799   6 C  s         
   107      7.240919   3 C  px              199      7.069894   5 C  px        
    61     -6.966593   2 C  px              245     -6.975926   6 C  px        
    15      6.433109   1 C  px               97     -6.252130   3 C  s         
   189      6.141312   5 C  s               153     -5.808390   4 C  px        
 
 Vector   46  Occ=0.000000D+00  E= 1.274501D-01
              MO Center=  3.6D-04,  1.9D-01,  1.4D-04, r^2= 2.6D+01
   Bfn.  Coefficient  Atom+Function         Bfn.  Coefficient  Atom+Function  
  ----- ------------  ---------------      ----- ------------  ---------------
   154     -8.025313   4 C  py               16      7.418439   1 C  py        
   108      6.907773   3 C  py               62     -6.519883   2 C  py        
   200      6.526526   5 C  py              246     -6.414746   6 C  py        
   326     -4.050867   9 H  s                 5      3.563239   1 C  s         
   349      3.200295  10 H  s               199     -3.131209   5 C  px        
 
 Vector   47  Occ=0.000000D+00  E= 1.609572D-01
              MO Center= -9.5D-03,  1.4D-01,  9.1D-05, r^2= 1.7D+01
   Bfn.  Coefficient  Atom+Function         Bfn.  Coefficient  Atom+Function  
  ----- ------------  ---------------      ----- ------------  ---------------
    17      8.192730   1 C  pz               63     -8.018788   2 C  pz        
   247     -7.989902   6 C  pz              155     -7.856421   4 C  pz        
   109      7.757753   3 C  pz              201      7.784499   5 C  pz        
    60     -1.196328   2 C  pz              198      1.197030   5 C  pz        
   106      1.188601   3 C  pz              244     -1.187608   6 C  pz        
 
 Vector   48  Occ=0.000000D+00  E= 1.660213D-01
              MO Center= -8.7D-02,  1.4D+00,  3.3D-04, r^2= 2.2D+01
   Bfn.  Coefficient  Atom+Function         Bfn.  Coefficient  Atom+Function  
  ----- ------------  ---------------      ----- ------------  ---------------
     5     59.205034   1 C  s               235    -26.186863   6 C  s         
   143     25.961208   4 C  s                51    -25.770511   2 C  s         
    97    -14.762618   3 C  s               189    -14.068225   5 C  s         
   154      7.402365   4 C  py              245      7.052374   6 C  px        
    61     -6.190232   2 C  px              326      6.156221   9 H  s         
 
 Vector   49  Occ=0.000000D+00  E= 1.754232D-01
              MO Center=  2.4D-02, -3.9D-01, -1.8D-04, r^2= 1.1D+01
   Bfn.  Coefficient  Atom+Function         Bfn.  Coefficient  Atom+Function  
  ----- ------------  ---------------      ----- ------------  ---------------
   335      1.104543   9 H  pz              312      1.078838   8 H  pz        
   358      1.079567  10 H  pz              289      0.974183   7 H  pz        
   381      0.972015  11 H  pz               17      0.959401   1 C  pz        
    63     -0.885086   2 C  pz              247     -0.884707   6 C  pz        
   198     -0.847350   5 C  pz              106     -0.838814   3 C  pz        
 
 Vector   50  Occ=0.000000D+00  E= 1.864194D-01
              MO Center=  5.1D-02, -5.5D-01,  1.1D-04, r^2= 1.5D+01
   Bfn.  Coefficient  Atom+Function         Bfn.  Coefficient  Atom+Function  
  ----- ------------  ---------------      ----- ------------  ---------------
     5     15.510457   1 C  s                97     -7.391861   3 C  s         
   189     -7.152444   5 C  s                51     -4.813166   2 C  s         
   325      4.422184   9 H  s               235     -4.152559   6 C  s         
    62     -3.981410   2 C  py              154      3.975749   4 C  py        
   246     -3.884246   6 C  py              302      3.406184   8 H  s         
 
 Vector   51  Occ=0.000000D+00  E= 1.980098D-01
              MO Center= -3.7D-01,  3.7D-01,  2.7D-04, r^2= 2.3D+01
   Bfn.  Coefficient  Atom+Function         Bfn.  Coefficient  Atom+Function  
  ----- ------------  ---------------      ----- ------------  ---------------
    51     51.921781   2 C  s               235    -34.079366   6 C  s         
   189    -26.782282   5 C  s                97     21.809759   3 C  s         
    15     17.650893   1 C  px              153     16.676660   4 C  px        
   143    -15.980691   4 C  s               348     14.384519  10 H  s         
   302    -12.676888   8 H  s               108    -11.523625   3 C  py        
 
 Vector   52  Occ=0.000000D+00  E= 1.984716D-01
              MO Center=  3.8D-01, -6.3D-01, -4.0D-04, r^2= 2.3D+01
   Bfn.  Coefficient  Atom+Function         Bfn.  Coefficient  Atom+Function  
  ----- ------------  ---------------      ----- ------------  ---------------
   143     59.193445   4 C  s               235    -45.133396   6 C  s         
    51    -21.577719   2 C  s               325    -16.272637   9 H  s         
    97     15.942683   3 C  s                62     15.530877   2 C  py        
   200     15.475905   5 C  py              371     13.018269  11 H  s         
   246     12.862040   6 C  py                5    -11.161614   1 C  s         
 
 Vector   53  Occ=0.000000D+00  E= 2.154354D-01
              MO Center=  7.1D-02, -1.4D+00, -3.3D-05, r^2= 1.5D+01
   Bfn.  Coefficient  Atom+Function         Bfn.  Coefficient  Atom+Function  
  ----- ------------  ---------------      ----- ------------  ---------------
    97     13.979203   3 C  s               189    -13.757124   5 C  s         
   188     -6.620689   5 C  s                96      6.467137   3 C  s         
   153      6.327966   4 C  px              279     -5.264525   7 H  s         
   371      5.013941  11 H  s               349     -4.758075  10 H  s         
   303      4.711362   8 H  s               246     -4.557882   6 C  py        
 
 Vector   54  Occ=0.000000D+00  E= 2.182589D-01
              MO Center=  4.3D-02, -2.8D-01, -2.1D-04, r^2= 1.5D+01
   Bfn.  Coefficient  Atom+Function         Bfn.  Coefficient  Atom+Function  
  ----- ------------  ---------------      ----- ------------  ---------------
   143     25.708819   4 C  s                51    -19.917127   2 C  s         
     5     15.869696   1 C  s               235    -15.538226   6 C  s         
    16     -6.450496   1 C  py              325     -6.030773   9 H  s         
   246      4.873514   6 C  py               62      4.689663   2 C  py        
   108      3.985337   3 C  py              371      3.870526  11 H  s         
 
 Vector   55  Occ=0.000000D+00  E= 2.191178D-01
              MO Center= -4.6D-02, -8.8D-02,  1.1D-03, r^2= 1.5D+01
   Bfn.  Coefficient  Atom+Function         Bfn.  Coefficient  Atom+Function  
  ----- ------------  ---------------      ----- ------------  ---------------
   235     21.119789   6 C  s                51    -18.225091   2 C  s         
   108      8.264070   3 C  py              200     -8.202156   5 C  py        
    15     -7.546757   1 C  px              348     -6.957069  10 H  s         
   302      6.817122   8 H  s               153     -6.270663   4 C  px        
    62     -4.270768   2 C  py              246      3.672379   6 C  py        
 
 Vector   56  Occ=0.000000D+00  E= 2.301165D-01
              MO Center=  2.6D-02,  2.9D-01,  1.9D-03, r^2= 1.8D+01
   Bfn.  Coefficient  Atom+Function         Bfn.  Coefficient  Atom+Function  
  ----- ------------  ---------------      ----- ------------  ---------------
   199      4.977451   5 C  px              107      4.588366   3 C  px        
   153     -3.561619   4 C  px               50     -3.357196   2 C  s         
   349     -3.224518  10 H  s               234      3.191400   6 C  s         
   303      3.089698   8 H  s                15     -2.629391   1 C  px        
   108      2.392726   3 C  py               59      1.964851   2 C  py        
 
 Vector   57  Occ=0.000000D+00  E= 2.311981D-01
              MO Center= -4.6D-04,  9.3D-04, -3.8D-03, r^2= 1.6D+01
   Bfn.  Coefficient  Atom+Function         Bfn.  Coefficient  Atom+Function  
  ----- ------------  ---------------      ----- ------------  ---------------
   198     -2.149254   5 C  pz              106      2.136361   3 C  pz        
    60      2.052650   2 C  pz              244     -2.041386   6 C  pz        
   312     -1.817983   8 H  pz              358      1.818716  10 H  pz        
   289     -1.722271   7 H  pz              381      1.718770  11 H  pz        
   169     -1.379508   4 C  d  1             31     -1.247174   1 C  d  1      
 
 Vector   58  Occ=0.000000D+00  E= 2.354244D-01
              MO Center=  2.4D-02,  2.2D-01,  5.9D-04, r^2= 1.6D+01
   Bfn.  Coefficient  Atom+Function         Bfn.  Coefficient  Atom+Function  
  ----- ------------  ---------------      ----- ------------  ---------------
   143     14.896521   4 C  s               235    -12.554739   6 C  s         
    51     -8.325586   2 C  s               107     -8.336120   3 C  px        
   199      7.526559   5 C  px               61      5.427735   2 C  px        
   245     -5.326026   6 C  px              303     -4.704458   8 H  s         
   200      4.237972   5 C  py              349     -4.105535  10 H  s         
 
 Vector   59  Occ=0.000000D+00  E= 2.364951D-01
              MO Center= -3.7D-02,  7.3D-02,  8.6D-04, r^2= 1.7D+01
   Bfn.  Coefficient  Atom+Function         Bfn.  Coefficient  Atom+Function  
  ----- ------------  ---------------      ----- ------------  ---------------
    97    -33.176253   3 C  s               189     33.029151   5 C  s         
    51     32.316225   2 C  s               235    -30.657103   6 C  s         
   188     14.766710   5 C  s                96    -13.889536   3 C  s         
   371    -10.857099  11 H  s               279     10.713636   7 H  s         
   302    -10.657480   8 H  s               348     10.629409  10 H  s         
 
 Vector   60  Occ=0.000000D+00  E= 2.434512D-01
              MO Center=  3.7D-03, -4.3D-02, -4.7D-04, r^2= 1.5D+01
   Bfn.  Coefficient  Atom+Function         Bfn.  Coefficient  Atom+Function  
  ----- ------------  ---------------      ----- ------------  ---------------
   152      3.413921   4 C  pz               14     -3.025852   1 C  pz        
   289      2.170210   7 H  pz              381      2.171549  11 H  pz        
   335     -2.124823   9 H  pz               77     -1.991404   2 C  d  1      
   261      1.997553   6 C  d  1             63     -1.598637   2 C  pz        
   247     -1.597402   6 C  pz              155      1.369915   4 C  pz        
 
 Vector   61  Occ=0.000000D+00  E= 2.594971D-01
              MO Center= -1.1D-02, -6.0D-01,  6.1D-05, r^2= 1.7D+01
   Bfn.  Coefficient  Atom+Function         Bfn.  Coefficient  Atom+Function  
  ----- ------------  ---------------      ----- ------------  ---------------
     5      8.733875   1 C  s               108     -6.744143   3 C  py        
   200     -5.980049   5 C  py              303     -5.274475   8 H  s         
   349     -5.092049  10 H  s               199      4.948241   5 C  px        
   105     -4.883735   3 C  py              143     -4.778651   4 C  s         
   197     -4.691531   5 C  py              107     -4.406401   3 C  px        
 
 Vector   62  Occ=0.000000D+00  E= 2.620200D-01
              MO Center=  4.9D-02, -1.1D+00, -5.4D-05, r^2= 1.7D+01
   Bfn.  Coefficient  Atom+Function         Bfn.  Coefficient  Atom+Function  
  ----- ------------  ---------------      ----- ------------  ---------------
     5     18.936777   1 C  s               154     15.365980   4 C  py        
   143     15.151028   4 C  s               235    -15.102007   6 C  s         
    51    -14.004525   2 C  s               326      9.179061   9 H  s         
     4      6.005715   1 C  s                97     -5.045658   3 C  s         
   108     -4.799564   3 C  py              151      4.362861   4 C  py        
 
 Vector   63  Occ=0.000000D+00  E= 2.676853D-01
              MO Center=  1.7D-02,  4.3D-01,  7.1D-05, r^2= 2.0D+01
   Bfn.  Coefficient  Atom+Function         Bfn.  Coefficient  Atom+Function  
  ----- ------------  ---------------      ----- ------------  ---------------
    51     20.569765   2 C  s               235    -19.787800   6 C  s         
   189     12.080352   5 C  s                97    -11.720379   3 C  s         
    61     11.033553   2 C  px              245     10.233938   6 C  px        
   188      8.971606   5 C  s               371     -8.894972  11 H  s         
   279      8.629396   7 H  s                96     -8.505426   3 C  s         
 
 Vector   64  Occ=0.000000D+00  E= 2.747950D-01
              MO Center= -3.3D-03,  2.3D-02,  7.2D-05, r^2= 1.4D+01
   Bfn.  Coefficient  Atom+Function         Bfn.  Coefficient  Atom+Function  
  ----- ------------  ---------------      ----- ------------  ---------------
   143      8.951198   4 C  s                 5      8.705690   1 C  s         
   154      5.765049   4 C  py              371     -5.695858  11 H  s         
   279     -5.609501   7 H  s               302     -4.715872   8 H  s         
   348     -4.581287  10 H  s               325     -4.357080   9 H  s         
    16     -4.029285   1 C  py               62      3.210302   2 C  py        
 
 Vector   65  Occ=0.000000D+00  E= 2.829800D-01
              MO Center=  7.9D-03,  1.8D-01, -2.1D-05, r^2= 1.6D+01
   Bfn.  Coefficient  Atom+Function         Bfn.  Coefficient  Atom+Function  
  ----- ------------  ---------------      ----- ------------  ---------------
    12      9.525878   1 C  px              189     -8.930824   5 C  s         
    97      8.867523   3 C  s                51     -8.101796   2 C  s         
   302      8.101283   8 H  s               348     -8.101922  10 H  s         
   235      7.946146   6 C  s               199      7.644285   5 C  px        
   107      7.152126   3 C  px              150      6.188171   4 C  px        
 
 Vector   66  Occ=0.000000D+00  E= 2.954376D-01
              MO Center= -1.2D-02,  5.1D-02, -2.4D-05, r^2= 1.6D+01
   Bfn.  Coefficient  Atom+Function         Bfn.  Coefficient  Atom+Function  
  ----- ------------  ---------------      ----- ------------  ---------------
    63      3.207153   2 C  pz              109     -3.214513   3 C  pz        
   247     -3.195263   6 C  pz              201      3.162164   5 C  pz        
   244     -2.276873   6 C  pz              289     -2.282348   7 H  pz        
   312      2.278484   8 H  pz              381      2.276804  11 H  pz        
    60      2.236287   2 C  pz              358     -2.244931  10 H  pz        
 
 Vector   67  Occ=0.000000D+00  E= 2.962821D-01
              MO Center= -7.3D-02,  9.6D-01,  4.1D-04, r^2= 1.4D+01
   Bfn.  Coefficient  Atom+Function         Bfn.  Coefficient  Atom+Function  
  ----- ------------  ---------------      ----- ------------  ---------------
     4     10.424526   1 C  s                59     -5.776072   2 C  py        
   243     -5.600273   6 C  py                5      5.529069   1 C  s         
   105     -5.500512   3 C  py              197     -5.186980   5 C  py        
    16      4.275905   1 C  py              279     -4.255542   7 H  s         
   371     -4.118688  11 H  s                13      3.909392   1 C  py        
 
 Vector   68  Occ=0.000000D+00  E= 3.080401D-01
              MO Center=  1.5D-02, -2.7D-01, -4.6D-04, r^2= 1.5D+01
   Bfn.  Coefficient  Atom+Function         Bfn.  Coefficient  Atom+Function  
  ----- ------------  ---------------      ----- ------------  ---------------
   155      5.177921   4 C  pz               14      4.363636   1 C  pz        
   201     -3.770474   5 C  pz              109     -3.708427   3 C  pz        
   335     -2.710260   9 H  pz               60     -2.089494   2 C  pz        
   244     -2.009425   6 C  pz              152      1.852632   4 C  pz        
    17      1.841612   1 C  pz              358      1.732409  10 H  pz        
 
 Vector   69  Occ=0.000000D+00  E= 3.150475D-01
              MO Center=  1.7D-02, -7.3D-02,  1.8D-05, r^2= 9.1D+00
   Bfn.  Coefficient  Atom+Function         Bfn.  Coefficient  Atom+Function  
  ----- ------------  ---------------      ----- ------------  ---------------
   261      1.266653   6 C  d  1             77      1.118171   2 C  d  1      
   169     -1.083099   4 C  d  1             75     -1.033680   2 C  d -1      
   259      0.861454   6 C  d -1            381      0.729806  11 H  pz        
   289     -0.712561   7 H  pz               31      0.635404   1 C  d  1      
   244      0.353748   6 C  pz               60     -0.319393   2 C  pz        
 
 Vector   70  Occ=0.000000D+00  E= 3.284695D-01
              MO Center=  4.8D-02, -6.2D-01,  9.2D-05, r^2= 1.5D+01
   Bfn.  Coefficient  Atom+Function         Bfn.  Coefficient  Atom+Function  
  ----- ------------  ---------------      ----- ------------  ---------------
   142     12.131084   4 C  s                96      8.866802   3 C  s         
   188      8.548369   5 C  s               151     -6.822078   4 C  py        
   325     -5.850697   9 H  s                 4     -5.225684   1 C  s         
   334     -5.008839   9 H  py                5      4.886940   1 C  s         
   348     -4.710453  10 H  s               243      4.066083   6 C  py        
 
 Vector   71  Occ=0.000000D+00  E= 3.347602D-01
              MO Center= -4.4D-03,  2.5D-02,  1.6D-04, r^2= 7.7D+00
   Bfn.  Coefficient  Atom+Function         Bfn.  Coefficient  Atom+Function  
  ----- ------------  ---------------      ----- ------------  ---------------
   289      2.034088   7 H  pz              381      2.024935  11 H  pz        
   335      1.839943   9 H  pz               14     -1.773265   1 C  pz        
   155     -1.702532   4 C  pz               63     -1.542744   2 C  pz        
   247     -1.546973   6 C  pz               77     -1.516106   2 C  d  1      
   261      1.406476   6 C  d  1            198     -1.305423   5 C  pz        
 
 Vector   72  Occ=0.000000D+00  E= 3.433096D-01
              MO Center=  5.3D-02, -3.9D-01, -4.0D-03, r^2= 1.2D+01
   Bfn.  Coefficient  Atom+Function         Bfn.  Coefficient  Atom+Function  
  ----- ------------  ---------------      ----- ------------  ---------------
   169      3.283199   4 C  d  1             31      2.702557   1 C  d  1      
   312     -2.473530   8 H  pz              358      2.483688  10 H  pz        
   215      2.240571   5 C  d  1            123      2.076889   3 C  d  1      
   198      1.862806   5 C  pz              106     -1.730754   3 C  pz        
   381      1.507079  11 H  pz              289     -1.347328   7 H  pz        
 
 Vector   73  Occ=0.000000D+00  E= 3.447537D-01
              MO Center= -3.1D-02,  5.2D-01, -2.2D-03, r^2= 1.2D+01
   Bfn.  Coefficient  Atom+Function         Bfn.  Coefficient  Atom+Function  
  ----- ------------  ---------------      ----- ------------  ---------------
   143     22.982641   4 C  s                51    -15.856202   2 C  s         
   279     13.978178   7 H  s               325    -12.655529   9 H  s         
   371      9.330394  11 H  s                 5     -7.685208   1 C  s         
   235     -6.850649   6 C  s               105     -6.695429   3 C  py        
   197     -6.601671   5 C  py              348     -6.483603  10 H  s         
 
 Vector   74  Occ=0.000000D+00  E= 3.479780D-01
              MO Center= -6.6D-02, -1.2D-01,  1.6D-03, r^2= 1.2D+01
   Bfn.  Coefficient  Atom+Function         Bfn.  Coefficient  Atom+Function  
  ----- ------------  ---------------      ----- ------------  ---------------
   235     24.031206   6 C  s                51    -17.303514   2 C  s         
   302     12.509291   8 H  s               371    -11.746297  11 H  s         
    97    -11.296533   3 C  s               348    -10.783328  10 H  s         
   189      9.889629   5 C  s                12      7.932704   1 C  px        
   279      7.167624   7 H  s               150      6.755168   4 C  px        
 
 Vector   75  Occ=0.000000D+00  E= 3.481727D-01
              MO Center=  4.3D-02, -5.2D-01,  5.3D-03, r^2= 1.3D+01
   Bfn.  Coefficient  Atom+Function         Bfn.  Coefficient  Atom+Function  
  ----- ------------  ---------------      ----- ------------  ---------------
   155     -3.972547   4 C  pz               17      3.785035   1 C  pz        
   109      3.570529   3 C  pz              201      3.556936   5 C  pz        
    63     -3.462241   2 C  pz              247     -3.447104   6 C  pz        
   152     -2.995200   4 C  pz              213     -2.312280   5 C  d -1      
   289      2.304469   7 H  pz              259     -2.258871   6 C  d -1      
 
 Vector   76  Occ=0.000000D+00  E= 3.527425D-01
              MO Center=  4.2D-03, -5.3D-01, -1.8D-04, r^2= 1.4D+01
   Bfn.  Coefficient  Atom+Function         Bfn.  Coefficient  Atom+Function  
  ----- ------------  ---------------      ----- ------------  ---------------
    17      6.390880   1 C  pz               63     -5.858388   2 C  pz        
   247     -5.860770   6 C  pz              201      5.149802   5 C  pz        
   109      5.102611   3 C  pz              155     -4.853389   4 C  pz        
   335      3.961457   9 H  pz               14      3.794340   1 C  pz        
   167      3.076553   4 C  d -1            244     -2.712204   6 C  pz        
 
 Vector   77  Occ=0.000000D+00  E= 3.546310D-01
              MO Center= -3.3D-02,  3.1D-01, -6.8D-04, r^2= 1.5D+01
   Bfn.  Coefficient  Atom+Function         Bfn.  Coefficient  Atom+Function  
  ----- ------------  ---------------      ----- ------------  ---------------
     5     31.348795   1 C  s                51    -16.214409   2 C  s         
   143     15.739261   4 C  s               235    -15.092657   6 C  s         
   151    -11.030879   4 C  py              234      7.805920   6 C  s         
   371     -7.598529  11 H  s               104      7.461925   3 C  px        
    13      7.261877   1 C  py              196     -7.284567   5 C  px        
 
 Vector   78  Occ=0.000000D+00  E= 3.599084D-01
              MO Center= -5.9D-02,  7.5D-01,  2.2D-04, r^2= 1.3D+01
   Bfn.  Coefficient  Atom+Function         Bfn.  Coefficient  Atom+Function  
  ----- ------------  ---------------      ----- ------------  ---------------
   289      3.420233   7 H  pz              381     -3.392066  11 H  pz        
    60      3.239203   2 C  pz               77     -3.120408   2 C  d  1      
   121     -3.115609   3 C  d -1            244     -3.076564   6 C  pz        
   259      3.001595   6 C  d -1            358      2.785972  10 H  pz        
   106     -2.754508   3 C  pz              213      2.755823   5 C  d -1      
 
 Vector   79  Occ=0.000000D+00  E= 3.685366D-01
              MO Center=  1.5D-01, -5.7D-01, -1.8D-04, r^2= 1.3D+01
   Bfn.  Coefficient  Atom+Function         Bfn.  Coefficient  Atom+Function  
  ----- ------------  ---------------      ----- ------------  ---------------
   188     10.914346   5 C  s                96     10.469764   3 C  s         
   196      8.760558   5 C  px              104     -8.185847   3 C  px        
   142     -7.479385   4 C  s                 5      7.104746   1 C  s         
   212      5.748047   5 C  d -2            258      5.559100   6 C  d -2      
   242     -5.155849   6 C  px              120     -4.926991   3 C  d -2      
 
 Vector   80  Occ=0.000000D+00  E= 3.721416D-01
              MO Center= -3.1D-02, -3.1D-01, -1.8D-04, r^2= 1.3D+01
   Bfn.  Coefficient  Atom+Function         Bfn.  Coefficient  Atom+Function  
  ----- ------------  ---------------      ----- ------------  ---------------
   189     10.161848   5 C  s                97     -9.371500   3 C  s         
   234      9.023850   6 C  s                50     -8.974220   2 C  s         
   279      5.706276   7 H  s               311      5.487899   8 H  py        
    51      5.393601   2 C  s               371     -5.201939  11 H  s         
   357     -4.825860  10 H  py              124     -4.670890   3 C  d  2      
 
 Vector   81  Occ=0.000000D+00  E= 3.819061D-01
              MO Center=  3.2D-02, -5.7D-01, -2.7D-06, r^2= 1.6D+01
   Bfn.  Coefficient  Atom+Function         Bfn.  Coefficient  Atom+Function  
  ----- ------------  ---------------      ----- ------------  ---------------
   166      9.071533   4 C  d -2            333      7.113190   9 H  px        
   150     -6.681053   4 C  px              216     -6.658085   5 C  d  2      
   371     -6.105831  11 H  s               124      5.978507   3 C  d  2      
   279      5.634020   7 H  s               310      5.057132   8 H  px        
   356      5.044182  10 H  px               96     -4.849298   3 C  s         
 
 Vector   82  Occ=0.000000D+00  E= 3.932586D-01
              MO Center= -5.4D-02,  4.6D-01,  2.1D-04, r^2= 1.5D+01
   Bfn.  Coefficient  Atom+Function         Bfn.  Coefficient  Atom+Function  
  ----- ------------  ---------------      ----- ------------  ---------------
    12     12.192627   1 C  px              235     11.602012   6 C  s         
    51    -10.505013   2 C  s                78     -9.325578   2 C  d  2      
   262      8.480139   6 C  d  2             15     -6.839786   1 C  px        
   216      6.681125   5 C  d  2            124     -5.831313   3 C  d  2      
   153     -5.839215   4 C  px              150      5.759012   4 C  px        
 
 Vector   83  Occ=0.000000D+00  E= 3.960278D-01
              MO Center= -5.6D-02,  8.3D-01,  1.7D-04, r^2= 1.2D+01
   Bfn.  Coefficient  Atom+Function         Bfn.  Coefficient  Atom+Function  
  ----- ------------  ---------------      ----- ------------  ---------------
   152     -7.531687   4 C  pz              198      7.369491   5 C  pz        
   106      7.303770   3 C  pz               60     -6.487367   2 C  pz        
   244     -6.473047   6 C  pz              167     -6.333716   4 C  d -1      
   215      5.122032   5 C  d  1            123     -4.710330   3 C  d  1      
    14      4.573453   1 C  pz              259      4.040772   6 C  d -1      
 
 Vector   84  Occ=0.000000D+00  E= 4.017435D-01
              MO Center=  8.4D-03,  5.2D-01, -7.2D-04, r^2= 1.5D+01
   Bfn.  Coefficient  Atom+Function         Bfn.  Coefficient  Atom+Function  
  ----- ------------  ---------------      ----- ------------  ---------------
     5     51.718978   1 C  s               235    -20.096999   6 C  s         
    51    -19.437563   2 C  s                97    -18.020849   3 C  s         
   189    -16.739539   5 C  s               143     11.662588   4 C  s         
   142    -10.267869   4 C  s                 4     -9.659463   1 C  s         
    50     -7.975913   2 C  s               234     -7.891867   6 C  s         
 
 Vector   85  Occ=0.000000D+00  E= 4.053056D-01
              MO Center= -1.1D-02,  8.5D-02, -7.3D-05, r^2= 1.3D+01
   Bfn.  Coefficient  Atom+Function         Bfn.  Coefficient  Atom+Function  
  ----- ------------  ---------------      ----- ------------  ---------------
[...]
     Occ.   20 alpha a   ---  Virt.   25 alpha a   -0.14906 X
     Occ.   20 alpha a   ---  Virt.   26 alpha a    0.83718 X
     Occ.   20 alpha a   ---  Virt.   35 alpha a   -0.05726 X
     Occ.   20 alpha a   ---  Virt.   36 alpha a   -0.05970 X
  ----------------------------------------------------------------------------
  Root  28         a              0.252938617 a.u.                6.8828 eV 
  <S2> =   1.8866
  ----------------------------------------------------------------------------
     Transition Moments    X -0.00001   Y  0.00001   Z -0.11562
     Transition Moments   XX -0.00002  XY -0.00000  XZ  0.33417
     Transition Moments   YY -0.00000  YZ -0.06258  ZZ  0.00000
     Dipole Oscillator Strength                    0.0022540918
     Electric Quadrupole                           0.0000000100
     Magnetic Dipole                               0.0000000142
     Total Oscillator Strength                     0.0022541159
 
     Occ.   19 alpha a   ---  Virt.   25 alpha a   -0.21414 X
     Occ.   19 alpha a   ---  Virt.   26 alpha a   -0.83809 X
     Occ.   19 alpha a   ---  Virt.   35 alpha a    0.05722 X
     Occ.   19 alpha a   ---  Virt.   36 alpha a    0.06015 X
     Occ.   20 alpha a   ---  Virt.   26 alpha a   -0.47781 X
     Occ.   19 beta  a   ---  Virt.   26 beta  a    0.08016 X
  ----------------------------------------------------------------------------
  Root  29         a              0.254031932 a.u.                6.9126 eV 
  <S2> =   1.5940
  ----------------------------------------------------------------------------
     Transition Moments    X  0.00010   Y -0.00002   Z  0.02207
     Transition Moments   XX -0.00002  XY  0.00004  XZ -0.49684
     Transition Moments   YY -0.00010  YZ -0.02212  ZZ -0.00003
     Dipole Oscillator Strength                    0.0000825224
     Electric Quadrupole                           0.0000000216
     Magnetic Dipole                               0.0000000113
     Total Oscillator Strength                     0.0000825553
 
     Occ.   19 alpha a   ---  Virt.   26 alpha a    0.06727 X
     Occ.   20 alpha a   ---  Virt.   26 alpha a    0.05283 X
     Occ.   19 beta  a   ---  Virt.   26 beta  a    0.98375 X
     Occ.   19 beta  a   ---  Virt.   35 beta  a   -0.05777 X
     Occ.   19 beta  a   ---  Virt.   36 beta  a   -0.07392 X
     Occ.   20 beta  a   ---  Virt.   25 beta  a    0.09521 X
  ----------------------------------------------------------------------------
  Root  30         a              0.254779259 a.u.                6.9329 eV 
  <S2> =   0.7706
  ----------------------------------------------------------------------------
     Transition Moments    X  1.50566   Y  0.06659   Z -0.00003
     Transition Moments   XX  0.04099  XY -0.18493  XZ  0.00005
     Transition Moments   YY -0.04661  YZ -0.00002  ZZ -0.00231
     Dipole Oscillator Strength                    0.3858129128
     Electric Quadrupole                           0.0000000032
     Magnetic Dipole                               0.0000000185
     Total Oscillator Strength                     0.3858129345
 
     Occ.   19 alpha a   ---  Virt.   22 alpha a   -0.31895 X
     Occ.   19 alpha a   ---  Virt.   23 alpha a   -0.24889 X
     Occ.   19 alpha a   ---  Virt.   29 alpha a    0.06931 X
     Occ.   20 alpha a   ---  Virt.   22 alpha a    0.20420 X
     Occ.   20 alpha a   ---  Virt.   23 alpha a   -0.34978 X
     Occ.   20 alpha a   ---  Virt.   29 alpha a    0.12283 X
     Occ.   21 alpha a   ---  Virt.   25 alpha a   -0.07598 X
     Occ.   21 alpha a   ---  Virt.   27 alpha a    0.38626 X
     Occ.   13 beta  a   ---  Virt.   21 beta  a   -0.12141 X
     Occ.   15 beta  a   ---  Virt.   21 beta  a   -0.27082 X
     Occ.   19 beta  a   ---  Virt.   24 beta  a   -0.49937 X
     Occ.   19 beta  a   ---  Virt.   29 beta  a    0.13864 X
     Occ.   20 beta  a   ---  Virt.   22 beta  a    0.34671 X
     Occ.   20 beta  a   ---  Virt.   22 beta  a   -0.05595 Y
  ----------------------------------------------------------------------------
  Root  31         a              0.255400272 a.u.                6.9498 eV 
  <S2> =   0.8012
  ----------------------------------------------------------------------------
     Transition Moments    X -0.02553   Y  0.63656   Z  0.00000
     Transition Moments   XX  0.65182  XY -0.08936  XZ -0.00002
     Transition Moments   YY  1.88440  YZ  0.00003  ZZ  0.14661
     Dipole Oscillator Strength                    0.0691050957
     Electric Quadrupole                           0.0000000716
     Magnetic Dipole                               0.0000000000
     Total Oscillator Strength                     0.0691051673
 
     Occ.   19 alpha a   ---  Virt.   22 alpha a    0.06200 X
     Occ.   19 alpha a   ---  Virt.   23 alpha a   -0.08806 X
     Occ.   20 alpha a   ---  Virt.   22 alpha a    0.09608 X
     Occ.   20 alpha a   ---  Virt.   23 alpha a    0.05813 X
     Occ.   21 alpha a   ---  Virt.   26 alpha a   -0.18448 X
     Occ.   21 alpha a   ---  Virt.   28 alpha a    0.90992 X
     Occ.   21 alpha a   ---  Virt.   30 alpha a    0.12842 X
     Occ.   21 alpha a   ---  Virt.   31 alpha a    0.16281 X
     Occ.   21 alpha a   ---  Virt.   48 alpha a   -0.05656 X
     Occ.   16 beta  a   ---  Virt.   21 beta  a   -0.18856 X
     Occ.   19 beta  a   ---  Virt.   22 beta  a   -0.10872 X
     Occ.   20 beta  a   ---  Virt.   24 beta  a   -0.09597 X
  ----------------------------------------------------------------------------
  Root  32         a              0.260746346 a.u.                7.0953 eV 
  <S2> =   0.8002
  ----------------------------------------------------------------------------
     Transition Moments    X -0.00001   Y  0.00001   Z -0.09554
     Transition Moments   XX  0.00001  XY  0.00001  XZ  0.04045
     Transition Moments   YY  0.00003  YZ -0.70510  ZZ -0.00000
     Dipole Oscillator Strength                    0.0015867183
     Electric Quadrupole                           0.0000000471
     Magnetic Dipole                               0.0000000330
     Total Oscillator Strength                     0.0015867983
 
     Occ.   21 alpha a   ---  Virt.   29 alpha a    0.97945 X
     Occ.   21 alpha a   ---  Virt.   33 alpha a    0.17995 X
  ----------------------------------------------------------------------------
  Root  33         a              0.265349662 a.u.                7.2205 eV 
  <S2> =   1.7835
  ----------------------------------------------------------------------------
     Transition Moments    X -0.00001   Y -0.00001   Z -0.00138
     Transition Moments   XX  0.00006  XY -0.00002  XZ -0.53970
     Transition Moments   YY  0.00003  YZ -0.08130  ZZ  0.00003
     Dipole Oscillator Strength                    0.0000003367
     Electric Quadrupole                           0.0000000296
     Magnetic Dipole                               0.0000000006
     Total Oscillator Strength                     0.0000003669
 
     Occ.   20 beta  a   ---  Virt.   27 beta  a   -0.99091 X
     Occ.   20 beta  a   ---  Virt.   38 beta  a    0.09653 X
  ----------------------------------------------------------------------------
  Root  34         a              0.267183475 a.u.                7.2704 eV 
  <S2> =   0.8223
  ----------------------------------------------------------------------------
     Transition Moments    X -0.05866   Y  1.20100   Z -0.00000
     Transition Moments   XX -0.01770  XY  0.03680  XZ -0.00001
     Transition Moments   YY -0.69549  YZ -0.00006  ZZ -0.04618
     Dipole Oscillator Strength                    0.2575376456
     Electric Quadrupole                           0.0000000151
     Magnetic Dipole                               0.0000000002
     Total Oscillator Strength                     0.2575376609
 
     Occ.   17 alpha a   ---  Virt.   23 alpha a    0.08531 X
     Occ.   19 alpha a   ---  Virt.   22 alpha a    0.13247 X
     Occ.   19 alpha a   ---  Virt.   23 alpha a   -0.25420 X
     Occ.   19 alpha a   ---  Virt.   29 alpha a   -0.13429 X
     Occ.   20 alpha a   ---  Virt.   22 alpha a    0.17958 X
     Occ.   20 alpha a   ---  Virt.   23 alpha a    0.16741 X
     Occ.   20 alpha a   ---  Virt.   29 alpha a    0.09093 X
     Occ.   21 alpha a   ---  Virt.   28 alpha a   -0.30086 X
     Occ.   21 alpha a   ---  Virt.   30 alpha a    0.42742 X
     Occ.   21 alpha a   ---  Virt.   31 alpha a   -0.08023 X
     Occ.   14 beta  a   ---  Virt.   21 beta  a    0.08534 X
     Occ.   16 beta  a   ---  Virt.   21 beta  a   -0.50116 X
     Occ.   19 beta  a   ---  Virt.   22 beta  a   -0.22306 X
     Occ.   20 beta  a   ---  Virt.   24 beta  a   -0.30642 X
     Occ.   20 beta  a   ---  Virt.   29 beta  a   -0.34555 X
  ----------------------------------------------------------------------------
  Root  35         a              0.270689865 a.u.                7.3658 eV 
  <S2> =   2.5045
  ----------------------------------------------------------------------------
     Transition Moments    X -0.00001   Y -0.00001   Z -0.01163
     Transition Moments   XX  0.00003  XY -0.00002  XZ -0.17220
     Transition Moments   YY  0.00003  YZ -0.24483  ZZ  0.00001
     Dipole Oscillator Strength                    0.0000244177
     Electric Quadrupole                           0.0000000095
     Magnetic Dipole                               0.0000000002
     Total Oscillator Strength                     0.0000244274
 
     Occ.   19 alpha a   ---  Virt.   27 alpha a    0.16161 X
     Occ.   20 alpha a   ---  Virt.   27 alpha a    0.85271 X
     Occ.   20 alpha a   ---  Virt.   38 alpha a   -0.09070 X
     Occ.   19 beta  a   ---  Virt.   27 beta  a   -0.46464 X
     Occ.   19 beta  a   ---  Virt.   38 beta  a    0.05683 X
     Occ.   20 beta  a   ---  Virt.   28 beta  a   -0.05672 X
     Occ.   20 beta  a   ---  Virt.   30 beta  a   -0.05560 X
  ----------------------------------------------------------------------------
  Root  36         a              0.271208290 a.u.                7.3800 eV 
  <S2> =   2.7393
  ----------------------------------------------------------------------------
     Transition Moments    X  0.04796   Y  0.01343   Z -0.00000
     Transition Moments   XX -0.02650  XY -0.03126  XZ -0.00001
     Transition Moments   YY  0.01412  YZ -0.00004  ZZ -0.00731
     Dipole Oscillator Strength                    0.0004484645
     Electric Quadrupole                           0.0000000001
     Magnetic Dipole                               0.0000000018
     Total Oscillator Strength                     0.0004484665
 
     Occ.   17 alpha a   ---  Virt.   22 alpha a   -0.59674 X
     Occ.   17 alpha a   ---  Virt.   41 alpha a   -0.05225 X
     Occ.   19 alpha a   ---  Virt.   29 alpha a    0.06147 X
     Occ.   19 alpha a   ---  Virt.   32 alpha a   -0.06826 X
     Occ.   19 alpha a   ---  Virt.   44 alpha a   -0.09740 X
     Occ.   19 alpha a   ---  Virt.   47 alpha a    0.07435 X
     Occ.   20 alpha a   ---  Virt.   29 alpha a    0.15502 X
     Occ.   20 alpha a   ---  Virt.   44 alpha a   -0.20489 X
     Occ.   20 alpha a   ---  Virt.   47 alpha a    0.15708 X
     Occ.   17 beta  a   ---  Virt.   22 beta  a   -0.64251 X
     Occ.   17 beta  a   ---  Virt.   41 beta  a    0.05411 X
     Occ.   19 beta  a   ---  Virt.   29 beta  a   -0.09991 X
     Occ.   19 beta  a   ---  Virt.   44 beta  a    0.19731 X
     Occ.   19 beta  a   ---  Virt.   47 beta  a   -0.16388 X
     Occ.   20 beta  a   ---  Virt.   29 beta  a    0.05588 X
     Occ.   20 beta  a   ---  Virt.   31 beta  a    0.10159 X
  ----------------------------------------------------------------------------
  Root  37         a              0.271713872 a.u.                7.3937 eV 
  <S2> =   1.1991
  ----------------------------------------------------------------------------
     Transition Moments    X -0.00000   Y -0.00014   Z -0.02008
     Transition Moments   XX  0.00031  XY -0.00003  XZ -0.10244
     Transition Moments   YY -0.00015  YZ -0.76007  ZZ  0.00006
     Dipole Oscillator Strength                    0.0000730581
     Electric Quadrupole                           0.0000000628
     Magnetic Dipole                               0.0000000036
     Total Oscillator Strength                     0.0000731245
 
     Occ.   19 alpha a   ---  Virt.   27 alpha a   -0.13191 X
     Occ.   20 alpha a   ---  Virt.   27 alpha a    0.48732 X
     Occ.   19 beta  a   ---  Virt.   27 beta  a    0.84941 X
     Occ.   19 beta  a   ---  Virt.   38 beta  a   -0.08276 X
     Occ.   20 beta  a   ---  Virt.   28 beta  a   -0.08785 X
  ----------------------------------------------------------------------------
  Root  38         a              0.271739966 a.u.                7.3944 eV 
  <S2> =   1.0605
  ----------------------------------------------------------------------------
     Transition Moments    X -0.02470   Y  0.50739   Z -0.00001
     Transition Moments   XX -1.04816  XY -0.10234  XZ -0.00002
     Transition Moments   YY  0.75432  YZ -0.00028  ZZ -0.23900
     Dipole Oscillator Strength                    0.0467500423
     Electric Quadrupole                           0.0000000882
     Magnetic Dipole                               0.0000000001
     Total Oscillator Strength                     0.0467501306
 
     Occ.   17 alpha a   ---  Virt.   23 alpha a    0.06117 X
     Occ.   19 alpha a   ---  Virt.   23 alpha a   -0.07436 X
     Occ.   21 alpha a   ---  Virt.   30 alpha a   -0.79528 X
     Occ.   21 alpha a   ---  Virt.   31 alpha a    0.20450 X
     Occ.   21 alpha a   ---  Virt.   35 alpha a   -0.07394 X
     Occ.   21 alpha a   ---  Virt.   40 alpha a    0.05652 X
     Occ.   14 beta  a   ---  Virt.   21 beta  a    0.06102 X
     Occ.   16 beta  a   ---  Virt.   21 beta  a   -0.18609 X
     Occ.   19 beta  a   ---  Virt.   22 beta  a   -0.05742 X
     Occ.   20 beta  a   ---  Virt.   24 beta  a   -0.09404 X
     Occ.   20 beta  a   ---  Virt.   29 beta  a   -0.49053 X
  ----------------------------------------------------------------------------
  Root  39         a              0.272441771 a.u.                7.4135 eV 
  <S2> =   1.9507
  ----------------------------------------------------------------------------
     Transition Moments    X  0.00001   Y -0.00003   Z -0.04264
     Transition Moments   XX -0.00005  XY -0.00002  XZ  0.26060
     Transition Moments   YY -0.00003  YZ -0.55964  ZZ -0.00002
     Dipole Oscillator Strength                    0.0003301742
     Electric Quadrupole                           0.0000000410
     Magnetic Dipole                               0.0000000035
     Total Oscillator Strength                     0.0003302187
 
     Occ.   19 alpha a   ---  Virt.   27 alpha a    0.34936 X
     Occ.   19 alpha a   ---  Virt.   28 alpha a    0.09342 X
     Occ.   20 alpha a   ---  Virt.   27 alpha a   -0.12040 X
     Occ.   20 alpha a   ---  Virt.   28 alpha a   -0.06696 X
     Occ.   17 beta  a   ---  Virt.   21 beta  a    0.05272 X
     Occ.   20 beta  a   ---  Virt.   28 beta  a   -0.90780 X
     Occ.   20 beta  a   ---  Virt.   30 beta  a   -0.05204 X
     Occ.   20 beta  a   ---  Virt.   32 beta  a   -0.07014 X
     Occ.   20 beta  a   ---  Virt.   43 beta  a   -0.07626 X
  ----------------------------------------------------------------------------
  Root  40         a              0.272579003 a.u.                7.4173 eV 
  <S2> =   1.5702
  ----------------------------------------------------------------------------
     Transition Moments    X -0.00000   Y  0.00002   Z  0.00718
     Transition Moments   XX -0.00005  XY  0.00000  XZ  0.45478
     Transition Moments   YY  0.00005  YZ -0.13314  ZZ -0.00003
     Dipole Oscillator Strength                    0.0000093756
     Electric Quadrupole                           0.0000000242
     Magnetic Dipole                               0.0000000031
     Total Oscillator Strength                     0.0000094029
 
     Occ.   19 alpha a   ---  Virt.   27 alpha a    0.90285 X
     Occ.   19 alpha a   ---  Virt.   38 alpha a   -0.08689 X
     Occ.   19 beta  a   ---  Virt.   27 beta  a    0.19976 X
     Occ.   20 beta  a   ---  Virt.   28 beta  a    0.35129 X
 
              Target root =      1
          Target symmetry = none
      Ground state energy =   -231.646295143704
        Excitation energy =      0.106285983434
     Excited state energy =   -231.540009160270
 
  stored tddft:energy   -231.540009160270     

 Task  times  cpu:     2665.2s     wall:     2772.1s
 
 
                                NWChem Input Module
                                -------------------
 
 
 Summary of allocated global arrays
-----------------------------------
  No active global arrays



                         GA Statistics for process    0
                         ------------------------------

       create   destroy   get      put      acc     scatter   gather  read&inc
calls: 9523     9523     1.02e+07 4.03e+06 2.97e+06 5640        0      360     
number of processes/call 1.31e+00 1.75e+00 1.94e+00 0.00e+00 0.00e+00
bytes total:             9.31e+10 1.09e+10 1.02e+11 6.26e+04 0.00e+00 2.88e+03
bytes remote:            6.96e+10 1.10e+09 9.76e+10 0.00e+00 0.00e+00 0.00e+00
Max memory consumed for GA by this process: 205086464 bytes
 
MA_summarize_allocated_blocks: starting scan ...
MA_summarize_allocated_blocks: scan completed: 0 heap blocks, 0 stack blocks
MA usage statistics:

	allocation statistics:
					      heap	     stack
					      ----	     -----
	current number of blocks	         0	         0
	maximum number of blocks	        20	        52
	current total bytes		         0	         0
	maximum total bytes		   1166016	  68276392
	maximum total K-bytes		      1167	     68277
	maximum total M-bytes		         2	        69
 
 
                                     CITATION
                                     --------
                Please cite the following reference when publishing
                           results obtained with NWChem:
 
                 M. Valiev, E.J. Bylaska, N. Govind, K. Kowalski,
              T.P. Straatsma, H.J.J. van Dam, D. Wang, J. Nieplocha,
                        E. Apra, T.L. Windus, W.A. de Jong
                 "NWChem: a comprehensive and scalable open-source
                  solution for large scale molecular simulations"
                      Comput. Phys. Commun. 181, 1477 (2010)
                           doi:10.1016/j.cpc.2010.04.018
 
                                      AUTHORS
                                      -------
          E. Apra, E. J. Bylaska, W. A. de Jong, N. Govind, K. Kowalski,
       T. P. Straatsma, M. Valiev, H. J. J. van Dam, D. Wang, T. L. Windus,
        J. Hammond, J. Autschbach, K. Bhaskaran-Nair, J. Brabec, K. Lopata,
    S. A. Fischer, S. Krishnamoorthy, M. Jacquelin, W. Ma, M. Klemm, O. Villa,
      Y. Chen, V. Anisimov, F. Aquino, S. Hirata, M. T. Hackler, V. Konjkov,
            D. Mejia-Rodriguez, T. Risthaus, M. Malagoli, A. Marenich,
   A. Otero-de-la-Roza, J. Mullin, P. Nichols, R. Peverati, J. Pittner, Y. Zhao,
        P.-D. Fan, A. Fonari, M. J. Williamson, R. J. Harrison, J. R. Rehr,
      M. Dupuis, D. Silverstein, D. M. A. Smith, J. Nieplocha, V. Tipparaju,
    M. Krishnan, B. E. Van Kuiken, A. Vazquez-Mayagoitia, L. Jensen, M. Swart,
      Q. Wu, T. Van Voorhis, A. A. Auer, M. Nooijen, L. D. Crosby, E. Brown,
      G. Cisneros, G. I. Fann, H. Fruchtl, J. Garza, K. Hirao, R. A. Kendall,
      J. A. Nichols, K. Tsemekhman, K. Wolinski, J. Anchell, D. E. Bernholdt,
      P. Borowski, T. Clark, D. Clerc, H. Dachsel, M. J. O. Deegan, K. Dyall,
    D. Elwood, E. Glendening, M. Gutowski, A. C. Hess, J. Jaffe, B. G. Johnson,
     J. Ju, R. Kobayashi, R. Kutteh, Z. Lin, R. Littlefield, X. Long, B. Meng,
      T. Nakajima, S. Niu, L. Pollack, M. Rosing, K. Glaesemann, G. Sandrone,
      M. Stave, H. Taylor, G. Thomas, J. H. van Lenthe, A. T. Wong, Z. Zhang.

 Total times  cpu:     2665.3s     wall:     2773.3s
