 argument  1 = /storage/home/j/jbb5516/normalModes/mode1049.38-p.nw
 


============================== echo of input deck ==============================
echo
start

title "None"

geometry
C    -0.08750929    1.38889179    0.00000005
C    -1.26826083    0.69111029   -0.00000002
C    -1.16691739   -0.70480860   -0.00000002
C     0.08290535   -1.31582163    0.00000004
C     1.24615313   -0.55276951   -0.00000001
C     1.17148646    0.84483067    0.00000005
H    -2.23383720    1.17889221   -0.00000010
H    -2.06601720   -1.30771451   -0.00000009
H     0.15091194   -2.39518811   -0.00000000
H     2.21381631   -1.03805695   -0.00000013
H     2.06820302    1.44994907   -0.00000010
symmetry c1
end

basis spherical
 * library "aug-cc-pvtz"
end

dft
 direct
 mult 2
 iterations 500
 xc b3lyp
end

tddft
 nroots 40
 notriplet
 algorithm 1
end
task tddft energy
================================================================================


                                         
                                         
 
 
              Northwest Computational Chemistry Package (NWChem) 6.8
              ------------------------------------------------------
 
 
                    Environmental Molecular Sciences Laboratory
                       Pacific Northwest National Laboratory
                                Richland, WA 99352
 
                              Copyright (c) 1994-2017
                       Pacific Northwest National Laboratory
                            Battelle Memorial Institute
 
             NWChem is an open-source computational chemistry package
                        distributed under the terms of the
                      Educational Community License (ECL) 2.0
             A copy of the license is included with this distribution
                              in the LICENSE.TXT file
 
                                  ACKNOWLEDGMENT
                                  --------------

            This software and its documentation were developed at the
            EMSL at Pacific Northwest National Laboratory, a multiprogram
            national laboratory, operated for the U.S. Department of Energy
            by Battelle under Contract Number DE-AC05-76RL01830. Support
            for this work was provided by the Department of Energy Office
            of Biological and Environmental Research, Office of Basic
            Energy Sciences, and the Office of Advanced Scientific Computing.


           Job information
           ---------------

    hostname        = comp-sc-0063.acib.production.int.aci.ics.psu.edu
    program         = /gpfs/group/lxj18/default/jeffprograms/nwchem-6.8.1/bin/LINUX64/nwchem
    date            = Sun Sep 20 14:40:30 2020

    compiled        = Wed_Oct_03_14:08:39_2018
    source          = /gpfs/group/lxj18/default/jeffprograms/nwchem-6.8.1
    nwchem branch   = 6.8.1
    nwchem revision = v6.8-143-gdb0d964
    ga revision     = 5.6.5
    use scalapack   = F
    input           = /storage/home/j/jbb5516/normalModes/mode1049.38-p.nw
    prefix          = mode1049.38-p.
    data base       = ./mode1049.38-p.db
    status          = startup
    nproc           =       20
    time left       =     -1s



           Memory information
           ------------------

    heap     =   13107194 doubles =    100.0 Mbytes
    stack    =   13107199 doubles =    100.0 Mbytes
    global   =   26214400 doubles =    200.0 Mbytes (distinct from heap & stack)
    total    =   52428793 doubles =    400.0 Mbytes
    verify   = yes
    hardfail = no 


           Directory information
           ---------------------
 
  0 permanent = .
  0 scratch   = .
 
 
 
 
                                NWChem Input Module
                                -------------------
 
 
                                       None
                                       ----

 Scaling coordinates for geometry "geometry" by  1.889725989
 (inverse scale =  0.529177249)

 Turning off AUTOSYM since
 SYMMETRY directive was detected!
 

          ------
          auto-z
          ------
 
 
                             Geometry "geometry" -> ""
                             -------------------------
 
 Output coordinates in angstroms (scale by  1.889725989 to convert to a.u.)
 
  No.       Tag          Charge          X              Y              Z
 ---- ---------------- ---------- -------------- -------------- --------------
    1 C                    6.0000    -0.08751469     1.38897765     0.00000005
    2 C                    6.0000    -1.26826623     0.69119615    -0.00000002
    3 C                    6.0000    -1.16692279    -0.70472274    -0.00000002
    4 C                    6.0000     0.08289995    -1.31573577     0.00000004
    5 C                    6.0000     1.24614773    -0.55268365    -0.00000001
    6 C                    6.0000     1.17148106     0.84491653     0.00000005
    7 H                    1.0000    -2.23384260     1.17897807    -0.00000010
    8 H                    1.0000    -2.06602260    -1.30762865    -0.00000009
    9 H                    1.0000     0.15090654    -2.39510225    -0.00000000
   10 H                    1.0000     2.21381091    -1.03797109    -0.00000013
   11 H                    1.0000     2.06819762     1.45003493    -0.00000010
 
      Atomic Mass 
      ----------- 
 
      C                 12.000000
      H                  1.007825
 

 Effective nuclear repulsion energy (a.u.)     195.0354169329

            Nuclear Dipole moment (a.u.) 
            ----------------------------
        X                 Y               Z
 ---------------- ---------------- ----------------
     0.0000000000     0.0000000000     0.0000000000
 


                                Z-matrix (autoz)
                                -------- 

 Units are Angstrom for bonds and degrees for angles
 
      Type          Name      I     J     K     L     M      Value
      ----------- --------  ----- ----- ----- ----- ----- ----------
    1 Stretch                  1     2                       1.37152
    2 Stretch                  1     6                       1.37152
    3 Stretch                  2     3                       1.39959
    4 Stretch                  2     7                       1.08179
    5 Stretch                  3     4                       1.39118
    6 Stretch                  3     8                       1.08253
    7 Stretch                  4     5                       1.39118
    8 Stretch                  4     9                       1.08151
    9 Stretch                  5     6                       1.39959
   10 Stretch                  5    10                       1.08253
   11 Stretch                  6    11                       1.08179
   12 Bend                     1     2     3               116.42918
   13 Bend                     1     2     7               122.61683
   14 Bend                     1     6     5               116.42917
   15 Bend                     1     6    11               122.61685
   16 Bend                     2     1     6               126.04739
   17 Bend                     2     3     4               120.20545
   18 Bend                     2     3     8               119.69209
   19 Bend                     3     2     7               120.95399
   20 Bend                     3     4     5               120.68338
   21 Bend                     3     4     9               119.65829
   22 Bend                     4     3     8               120.10246
   23 Bend                     4     5     6               120.20544
   24 Bend                     4     5    10               120.10248
   25 Bend                     5     4     9               119.65834
   26 Bend                     5     6    11               120.95398
   27 Bend                     6     5    10               119.69209
   28 Torsion                  1     2     3     4           0.00000
   29 Torsion                  1     2     3     8        -180.00000
   30 Torsion                  1     6     5     4           0.00000
   31 Torsion                  1     6     5    10         180.00000
   32 Torsion                  2     1     6     5           0.00000
   33 Torsion                  2     1     6    11         180.00000
   34 Torsion                  2     3     4     5           0.00000
   35 Torsion                  2     3     4     9        -180.00000
   36 Torsion                  3     2     1     6           0.00000
   37 Torsion                  3     4     5     6           0.00000
   38 Torsion                  3     4     5    10        -180.00000
   39 Torsion                  4     3     2     7         180.00000
   40 Torsion                  4     5     6    11        -180.00000
   41 Torsion                  5     4     3     8         180.00000
   42 Torsion                  6     1     2     7        -180.00000
   43 Torsion                  6     5     4     9        -180.00000
   44 Torsion                  7     2     3     8           0.00000
   45 Torsion                  8     3     4     9           0.00000
   46 Torsion                  9     4     5    10           0.00000
   47 Torsion                 10     5     6    11           0.00000
 
 
            XYZ format geometry
            -------------------
    11
 geometry
 C                    -0.08751469     1.38897765     0.00000005
 C                    -1.26826623     0.69119615    -0.00000002
 C                    -1.16692279    -0.70472274    -0.00000002
 C                     0.08289995    -1.31573577     0.00000004
 C                     1.24614773    -0.55268365    -0.00000001
 C                     1.17148106     0.84491653     0.00000005
 H                    -2.23384260     1.17897807    -0.00000010
 H                    -2.06602260    -1.30762865    -0.00000009
 H                     0.15090654    -2.39510225    -0.00000000
 H                     2.21381091    -1.03797109    -0.00000013
 H                     2.06819762     1.45003493    -0.00000010
 
 ==============================================================================
                                internuclear distances
 ------------------------------------------------------------------------------
       center one      |      center two      | atomic units |  angstroms
 ------------------------------------------------------------------------------
    2 C                |   1 C                |     2.59180  |     1.37152
    3 C                |   2 C                |     2.64485  |     1.39959
    4 C                |   3 C                |     2.62896  |     1.39118
    5 C                |   4 C                |     2.62896  |     1.39118
    6 C                |   1 C                |     2.59180  |     1.37152
    6 C                |   5 C                |     2.64485  |     1.39959
    7 H                |   2 C                |     2.04429  |     1.08179
    8 H                |   3 C                |     2.04569  |     1.08253
    9 H                |   4 C                |     2.04375  |     1.08151
   10 H                |   5 C                |     2.04569  |     1.08253
   11 H                |   6 C                |     2.04429  |     1.08179
 ------------------------------------------------------------------------------
                         number of included internuclear distances:         11
 ==============================================================================



 ==============================================================================
                                 internuclear angles
 ------------------------------------------------------------------------------
        center 1       |       center 2       |       center 3       |  degrees
 ------------------------------------------------------------------------------
    2 C                |   1 C                |   6 C                |   126.05
    1 C                |   2 C                |   3 C                |   116.43
    1 C                |   2 C                |   7 H                |   122.62
    3 C                |   2 C                |   7 H                |   120.95
    2 C                |   3 C                |   4 C                |   120.21
    2 C                |   3 C                |   8 H                |   119.69
    4 C                |   3 C                |   8 H                |   120.10
    3 C                |   4 C                |   5 C                |   120.68
    3 C                |   4 C                |   9 H                |   119.66
    5 C                |   4 C                |   9 H                |   119.66
    4 C                |   5 C                |   6 C                |   120.21
    4 C                |   5 C                |  10 H                |   120.10
    6 C                |   5 C                |  10 H                |   119.69
    1 C                |   6 C                |   5 C                |   116.43
    1 C                |   6 C                |  11 H                |   122.62
    5 C                |   6 C                |  11 H                |   120.95
 ------------------------------------------------------------------------------
                            number of included internuclear angles:         16
 ==============================================================================





 Summary of "ao basis" -> "" (spherical)
 ------------------------------------------------------------------------------
       Tag                 Description            Shells   Functions and Types
 ---------------- ------------------------------  ------  ---------------------
 *                        aug-cc-pvtz                 on all atoms 


 
                                 NWChem DFT Module
                                 -----------------
 
 
                                       None
 
 
                      Basis "ao basis" -> "ao basis" (spherical)
                      -----
  C (Carbon)
  ----------
            Exponent  Coefficients 
       -------------- ---------------------------------------------------------
  1 S  8.23600000E+03  0.000531
  1 S  1.23500000E+03  0.004108
  1 S  2.80800000E+02  0.021087
  1 S  7.92700000E+01  0.081853
  1 S  2.55900000E+01  0.234817
  1 S  8.99700000E+00  0.434401
  1 S  3.31900000E+00  0.346129
  1 S  3.64300000E-01 -0.008983
 
  2 S  8.23600000E+03 -0.000113
  2 S  1.23500000E+03 -0.000878
  2 S  2.80800000E+02 -0.004540
  2 S  7.92700000E+01 -0.018133
  2 S  2.55900000E+01 -0.055760
  2 S  8.99700000E+00 -0.126895
  2 S  3.31900000E+00 -0.170352
  2 S  3.64300000E-01  0.598684
 
  3 S  9.05900000E-01  1.000000
 
  4 S  1.28500000E-01  1.000000
 
  5 S  4.40200000E-02  1.000000
 
  6 P  1.87100000E+01  0.014031
  6 P  4.13300000E+00  0.086866
  6 P  1.20000000E+00  0.290216
 
  7 P  3.82700000E-01  1.000000
 
  8 P  1.20900000E-01  1.000000
 
  9 P  3.56900000E-02  1.000000
 
 10 D  1.09700000E+00  1.000000
 
 11 D  3.18000000E-01  1.000000
 
 12 D  1.00000000E-01  1.000000
 
 13 F  7.61000000E-01  1.000000
 
 14 F  2.68000000E-01  1.000000
 
  H (Hydrogen)
  ------------
            Exponent  Coefficients 
       -------------- ---------------------------------------------------------
  1 S  3.38700000E+01  0.006068
  1 S  5.09500000E+00  0.045308
  1 S  1.15900000E+00  0.202822
 
  2 S  3.25800000E-01  1.000000
 
  3 S  1.02700000E-01  1.000000
 
  4 S  2.52600000E-02  1.000000
 
  5 P  1.40700000E+00  1.000000
 
  6 P  3.88000000E-01  1.000000
 
  7 P  1.02000000E-01  1.000000
 
  8 D  1.05700000E+00  1.000000
 
  9 D  2.47000000E-01  1.000000
 


 Summary of "ao basis" -> "ao basis" (spherical)
 ------------------------------------------------------------------------------
       Tag                 Description            Shells   Functions and Types
 ---------------- ------------------------------  ------  ---------------------
 C                        aug-cc-pvtz               14       46   5s4p3d2f
 H                        aug-cc-pvtz                9       23   4s3p2d




 Summary of "ao basis" -> "ao basis" (spherical)
 ------------------------------------------------------------------------------
       Tag                 Description            Shells   Functions and Types
 ---------------- ------------------------------  ------  ---------------------
 C                        aug-cc-pvtz               14       46   5s4p3d2f
 H                        aug-cc-pvtz                9       23   4s3p2d


  Caching 1-el integrals 
 
            General Information
            -------------------
          SCF calculation type: DFT
          Wavefunction type:  spin polarized.
          No. of atoms     :    11
          No. of electrons :    41
           Alpha electrons :    21
            Beta electrons :    20
          Charge           :     0
          Spin multiplicity:     2
          Use of symmetry is: off; symmetry adaption is: off
          Maximum number of iterations: 500
          This is a Direct SCF calculation.
          AO basis - number of functions:   391
                     number of shells:   129
          Convergence on energy requested:  1.00D-06
          Convergence on density requested:  1.00D-05
          Convergence on gradient requested:  5.00D-04
 
              XC Information
              --------------
                         B3LYP Method XC Potential
                     Hartree-Fock (Exact) Exchange  0.200          
                        Slater Exchange Functional  0.800 local    
                    Becke 1988 Exchange Functional  0.720 non-local
              Lee-Yang-Parr Correlation Functional  0.810          
                  VWN I RPA Correlation Functional  0.190 local    
 
             Grid Information
             ----------------
          Grid used for XC integration:  medium    
          Radial quadrature: Mura-Knowles        
          Angular quadrature: Lebedev. 
          Tag              B.-S. Rad. Rad. Pts. Rad. Cut. Ang. Pts.
          ---              ---------- --------- --------- ---------
          C                   0.70       49          15.0       434
          H                   0.35       45          17.0       434
          Grid pruning is: on 
          Number of quadrature shells:   519
          Spatial weights used:  Erf1
 
          Convergence Information
          -----------------------
          Convergence aids based upon iterative change in 
          total energy or number of iterations. 
          Levelshifting, if invoked, occurs when the 
          HOMO/LUMO gap drops below (HL_TOL):  1.00D-02
          DIIS, if invoked, will attempt to extrapolate 
          using up to (NFOCK): 10 stored Fock matrices.

                    Damping( 0%)  Levelshifting(0.5)       DIIS
                  --------------- ------------------- ---------------
          dE  on:    start            ASAP                start   
          dE off:    2 iters        500 iters           500 iters 

 
      Screening Tolerance Information
      -------------------------------
          Density screening/tol_rho:  1.00D-10
          AO Gaussian exp screening on grid/accAOfunc:  14
          CD Gaussian exp screening on grid/accCDfunc:  20
          XC Gaussian exp screening on grid/accXCfunc:  20
          Schwarz screening/accCoul:  1.00D-08

 
 WARNING : Found     7 linear dependencies 
 S eigenvalue threshold:     1.00000E-05
 Smallest S eigenvalue :     1.46261E-06
 Largest  S eigenvalue :     7.77211E-06
 

 !! The overlap matrix has   7 vectors deemed linearly dependent with
    eigenvalues:
 1.46D-06 2.23D-06 2.83D-06 3.54D-06 5.29D-06 5.95D-06 7.77D-06
 
 
      Superposition of Atomic Density Guess
      -------------------------------------
 
 Sum of atomic energies:        -228.52307259
 
      Non-variational initial energy
      ------------------------------

 Total energy =    -232.664295
 1-e energy   =    -691.274023
 2-e energy   =     263.574311
 HOMO         =      -0.183236
 LUMO         =      -0.022265
 
   Time after variat. SCF:     10.2
   Time prior to 1st pass:     10.2

 Grid_pts file          = ./mode1049.38-p.gridpts.00
 Record size in doubles =  12289        No. of grid_pts per rec  =   3070
 Max. records in memory =      6        Max. recs in file   = 221877124

 Grid integrated density:      40.999765620160
 Requested integration accuracy:   0.10E-05

           Memory utilization after 1st SCF pass: 
           Heap Space remaining (MW):       12.96            12961274
          Stack Space remaining (MW):       13.10            13103684

   convergence    iter        energy       DeltaE   RMS-Dens  Diis-err    time
 ---------------- ----- ----------------- --------- --------- ---------  ------
 d= 0,ls=0.0,diis     1   -231.5815538534 -4.27D+02  6.14D-02  2.09D-01    21.0
                                                     6.94D-02  1.96D-01
 d= 0,ls=0.0,diis     2   -231.6398446495 -5.83D-02  6.04D-02  1.22D-02    31.7
                                                     6.82D-02  1.25D-02
 d= 0,ls=0.0,diis     3   -231.6446020983 -4.76D-03  1.27D-03  3.47D-03    42.4
                                                     1.38D-03  3.50D-03
 d= 0,ls=0.0,diis     4   -231.6457509642 -1.15D-03  2.01D-04  1.13D-03    53.1
                                                     2.06D-04  1.09D-03
 d= 0,ls=0.0,diis     5   -231.6462775828 -5.27D-04  3.33D-05  5.24D-05    63.8
                                                     2.93D-05  5.52D-05
  Resetting Diis
 d= 0,ls=0.0,diis     6   -231.6463064035 -2.88D-05  1.13D-05  1.47D-05    74.6
                                                     1.13D-05  1.41D-05
 d= 0,ls=0.0,diis     7   -231.6463165388 -1.01D-05  8.67D-06  2.59D-06    85.3
                                                     7.45D-06  2.29D-06
 d= 0,ls=0.0,diis     8   -231.6463179112 -1.37D-06  3.11D-06  5.71D-06    96.0
                                                     2.82D-06  5.35D-06
 d= 0,ls=0.0,diis     9   -231.6463214460 -3.53D-06  4.83D-06  4.05D-07   106.8
                                                     4.42D-06  3.65D-07
 d= 0,ls=0.0,diis    10   -231.6463231523 -1.71D-06  1.35D-06  1.34D-07   117.5
                                                     1.65D-06  2.33D-07
 d= 0,ls=0.0,diis    11   -231.6463234056 -2.53D-07  7.03D-07  2.65D-08   128.2
                                                     6.45D-07  1.26D-08


         Total DFT energy =     -231.646323405613
      One electron energy =     -696.503910684414
           Coulomb energy =      304.230451765857
    Exchange-Corr. energy =      -34.408281419909
 Nuclear repulsion energy =      195.035416932852

 Numeric. integr. density =       40.999983996531

     Total iterative time =    118.1s


 
                    DFT Final Alpha Molecular Orbital Analysis
                    ------------------------------------------
 
 Vector    1  Occ=1.000000D+00  E=-1.020559D+01
              MO Center= -8.7D-02,  1.4D+00,  4.8D-08, r^2= 3.0D-02
   Bfn.  Coefficient  Atom+Function         Bfn.  Coefficient  Atom+Function  
  ----- ------------  ---------------      ----- ------------  ---------------
     1      0.984152   1 C  s                 3      0.058814   1 C  s         
    50     -0.038198   2 C  s               234     -0.038199   6 C  s         
   143      0.037800   4 C  s               279      0.037655   7 H  s         
   371      0.037654  11 H  s                51     -0.030585   2 C  s         
   235     -0.030584   6 C  s         
 
 Vector    2  Occ=1.000000D+00  E=-1.019177D+01
              MO Center= -3.7D-01, -5.8D-01, -2.1D-08, r^2= 1.4D+00
   Bfn.  Coefficient  Atom+Function         Bfn.  Coefficient  Atom+Function  
  ----- ------------  ---------------      ----- ------------  ---------------
    93      0.782368   3 C  s               185      0.552211   5 C  s         
    47      0.191710   2 C  s               231      0.127331   6 C  s         
   142     -0.099051   4 C  s               139      0.057349   4 C  s         
   325      0.048840   9 H  s                95      0.046886   3 C  s         
   302      0.042202   8 H  s               187      0.033147   5 C  s         
 
 Vector    3  Occ=1.000000D+00  E=-1.019176D+01
              MO Center=  4.4D-01, -5.0D-01, -1.5D-08, r^2= 1.5D+00
   Bfn.  Coefficient  Atom+Function         Bfn.  Coefficient  Atom+Function  
  ----- ------------  ---------------      ----- ------------  ---------------
   185      0.778093   5 C  s                93     -0.546164   3 C  s         
   231      0.213306   6 C  s                47     -0.157932   2 C  s         
    50      0.061082   2 C  s               348      0.056781  10 H  s         
   234     -0.055188   6 C  s                51      0.054836   2 C  s         
   279     -0.053295   7 H  s               235     -0.052505   6 C  s         
 
 Vector    4  Occ=1.000000D+00  E=-1.019055D+01
              MO Center= -5.3D-01,  6.6D-01, -2.7D-09, r^2= 1.4D+00
   Bfn.  Coefficient  Atom+Function         Bfn.  Coefficient  Atom+Function  
  ----- ------------  ---------------      ----- ------------  ---------------
    47      0.799865   2 C  s               231      0.528090   6 C  s         
    93     -0.196261   3 C  s               185     -0.121736   5 C  s         
   279      0.051908   7 H  s                49      0.046983   2 C  s         
   143      0.045305   4 C  s                 4     -0.039237   1 C  s         
   371      0.037479  11 H  s               325     -0.035152   9 H  s         
 
 Vector    5  Occ=1.000000D+00  E=-1.019054D+01
              MO Center=  4.4D-01,  7.0D-01,  2.3D-08, r^2= 1.4D+00
   Bfn.  Coefficient  Atom+Function         Bfn.  Coefficient  Atom+Function  
  ----- ------------  ---------------      ----- ------------  ---------------
   231      0.794308   6 C  s                47     -0.519650   2 C  s         
   185     -0.212937   5 C  s                93      0.147025   3 C  s         
    97      0.048841   3 C  s               189     -0.046262   5 C  s         
    96      0.045891   3 C  s               233      0.045542   6 C  s         
   188     -0.044172   5 C  s               371      0.044139  11 H  s         
 
 Vector    6  Occ=1.000000D+00  E=-1.018416D+01
              MO Center=  8.3D-02, -1.3D+00,  3.9D-08, r^2= 3.4D-02
   Bfn.  Coefficient  Atom+Function         Bfn.  Coefficient  Atom+Function  
  ----- ------------  ---------------      ----- ------------  ---------------
   139      0.984325   4 C  s               141      0.057809   4 C  s         
   325      0.046003   9 H  s                96     -0.045730   3 C  s         
   188     -0.045730   5 C  s               143     -0.043375   4 C  s         
     4      0.040516   1 C  s                93     -0.039306   3 C  s         
   185     -0.039334   5 C  s               151      0.035786   4 C  py        
 
 Vector    7  Occ=1.000000D+00  E=-8.723397D-01
              MO Center= -6.1D-03,  9.6D-02,  4.9D-09, r^2= 2.0D+00
   Bfn.  Coefficient  Atom+Function         Bfn.  Coefficient  Atom+Function  
  ----- ------------  ---------------      ----- ------------  ---------------
     2      0.213493   1 C  s                48      0.202376   2 C  s         
   232      0.202371   6 C  s                94      0.195895   3 C  s         
   186      0.195889   5 C  s               140      0.188743   4 C  s         
    50      0.090774   2 C  s               234      0.090770   6 C  s         
    96      0.087623   3 C  s               188      0.087621   5 C  s         
 
 Vector    8  Occ=1.000000D+00  E=-7.626912D-01
              MO Center= -6.2D-03,  9.9D-02,  1.8D-09, r^2= 2.8D+00
   Bfn.  Coefficient  Atom+Function         Bfn.  Coefficient  Atom+Function  
  ----- ------------  ---------------      ----- ------------  ---------------
    48      0.250735   2 C  s               232     -0.250739   6 C  s         
    94      0.243921   3 C  s               186     -0.243923   5 C  s         
    50      0.146383   2 C  s               234     -0.146390   6 C  s         
   279     -0.129470   7 H  s               371      0.129473  11 H  s         
   150     -0.115804   4 C  px               97      0.110516   3 C  s         
 
 Vector    9  Occ=1.000000D+00  E=-7.536932D-01
              MO Center=  9.1D-03, -1.5D-01, -2.7D-08, r^2= 2.6D+00
   Bfn.  Coefficient  Atom+Function         Bfn.  Coefficient  Atom+Function  
  ----- ------------  ---------------      ----- ------------  ---------------
   140     -0.300796   4 C  s                 2      0.278638   1 C  s         
    48      0.148421   2 C  s                94     -0.148441   3 C  s         
   186     -0.148439   5 C  s               232      0.148417   6 C  s         
   142     -0.147155   4 C  s                96     -0.104410   3 C  s         
   188     -0.104411   5 C  s                 4      0.103239   1 C  s         
 
 Vector   10  Occ=1.000000D+00  E=-6.186941D-01
              MO Center= -2.3D-03,  3.7D-02, -1.0D-08, r^2= 3.6D+00
   Bfn.  Coefficient  Atom+Function         Bfn.  Coefficient  Atom+Function  
  ----- ------------  ---------------      ----- ------------  ---------------
    94     -0.208442   3 C  s               186      0.208441   5 C  s         
    48      0.199593   2 C  s               232     -0.199595   6 C  s         
    50      0.183673   2 C  s               234     -0.183675   6 C  s         
    96     -0.146920   3 C  s               188      0.146913   5 C  s         
     6     -0.126947   1 C  px              144      0.117182   4 C  px        
 
 Vector   11  Occ=1.000000D+00  E=-6.035092D-01
              MO Center=  5.2D-03, -8.3D-02, -3.2D-08, r^2= 3.5D+00
   Bfn.  Coefficient  Atom+Function         Bfn.  Coefficient  Atom+Function  
  ----- ------------  ---------------      ----- ------------  ---------------
   142      0.257123   4 C  s                 2      0.239382   1 C  s         
   140      0.218346   4 C  s                 4      0.200090   1 C  s         
    94     -0.138255   3 C  s               186     -0.138260   5 C  s         
    50     -0.122884   2 C  s               234     -0.122879   6 C  s         
    96     -0.119082   3 C  s               188     -0.119086   5 C  s         
 
 Vector   12  Occ=1.000000D+00  E=-5.276887D-01
              MO Center=  9.6D-03, -1.5D-01, -1.1D-08, r^2= 4.1D+00
   Bfn.  Coefficient  Atom+Function         Bfn.  Coefficient  Atom+Function  
  ----- ------------  ---------------      ----- ------------  ---------------
   148      0.159422   4 C  py              145      0.139025   4 C  py        
   324     -0.126981   9 H  s                55      0.105213   2 C  px        
   240     -0.104829   6 C  py              323     -0.100503   9 H  s         
   237     -0.096110   6 C  py              193     -0.094370   5 C  px        
   278     -0.094492   7 H  s               370     -0.094490  11 H  s         
 
 Vector   13  Occ=1.000000D+00  E=-4.644941D-01
              MO Center= -6.8D-03,  1.1D-01,  1.2D-10, r^2= 2.7D+00
   Bfn.  Coefficient  Atom+Function         Bfn.  Coefficient  Atom+Function  
  ----- ------------  ---------------      ----- ------------  ---------------
     9      0.189392   1 C  px                6      0.175609   1 C  px        
   147      0.172004   4 C  px              144      0.158823   4 C  px        
   239     -0.137058   6 C  px              194     -0.134340   5 C  py        
    56     -0.131429   2 C  py               55     -0.121543   2 C  px        
   236     -0.122027   6 C  px              191     -0.121073   5 C  py        
 
 Vector   14  Occ=1.000000D+00  E=-4.632056D-01
              MO Center=  1.0D-02, -1.6D-01, -4.3D-08, r^2= 4.8D+00
   Bfn.  Coefficient  Atom+Function         Bfn.  Coefficient  Atom+Function  
  ----- ------------  ---------------      ----- ------------  ---------------
     2      0.176371   1 C  s               301      0.136739   8 H  s         
   347      0.136730  10 H  s               140     -0.129714   4 C  s         
   193      0.127837   5 C  px              196      0.120635   5 C  px        
   101     -0.118829   3 C  px              190      0.118647   5 C  px        
   104     -0.117700   3 C  px               96      0.117058   3 C  s         
 
 Vector   15  Occ=1.000000D+00  E=-4.399876D-01
              MO Center= -1.3D-02,  2.1D-01, -2.5D-08, r^2= 4.0D+00
   Bfn.  Coefficient  Atom+Function         Bfn.  Coefficient  Atom+Function  
  ----- ------------  ---------------      ----- ------------  ---------------
   240      0.144140   6 C  py              102      0.139371   3 C  py        
   237      0.133035   6 C  py              278     -0.131623   7 H  s         
   370      0.131623  11 H  s                99      0.130363   3 C  py        
    55      0.129513   2 C  px               56     -0.128905   2 C  py        
   194     -0.127177   5 C  py               53     -0.119765   2 C  py        
 
 Vector   16  Occ=1.000000D+00  E=-3.990397D-01
              MO Center=  4.9D-02, -7.8D-01, -1.0D-08, r^2= 3.3D+00
   Bfn.  Coefficient  Atom+Function         Bfn.  Coefficient  Atom+Function  
  ----- ------------  ---------------      ----- ------------  ---------------
   148      0.233464   4 C  py              145      0.209085   4 C  py        
   324     -0.198555   9 H  s               151      0.172851   4 C  py        
   323     -0.153996   9 H  s                10      0.138664   1 C  py        
    13      0.120990   1 C  py              240      0.115281   6 C  py        
    56      0.109485   2 C  py                7      0.107910   1 C  py        
 
 Vector   17  Occ=1.000000D+00  E=-3.836182D-01
              MO Center= -7.5D-03,  1.2D-01, -5.7D-08, r^2= 2.7D+00
   Bfn.  Coefficient  Atom+Function         Bfn.  Coefficient  Atom+Function  
  ----- ------------  ---------------      ----- ------------  ---------------
    11      0.173141   1 C  pz               57      0.156255   2 C  pz        
   241      0.156251   6 C  pz              103      0.152401   3 C  pz        
   195      0.152397   5 C  pz              149      0.146197   4 C  pz        
     8      0.136560   1 C  pz               54      0.125646   2 C  pz        
   238      0.125643   6 C  pz              100      0.121868   3 C  pz        
 
 Vector   18  Occ=1.000000D+00  E=-3.659616D-01
              MO Center=  9.3D-03, -1.5D-01, -2.8D-08, r^2= 4.1D+00
   Bfn.  Coefficient  Atom+Function         Bfn.  Coefficient  Atom+Function  
  ----- ------------  ---------------      ----- ------------  ---------------
   147     -0.169392   4 C  px              101      0.165436   3 C  px        
   193      0.165386   5 C  px              144     -0.160063   4 C  px        
     9      0.149344   1 C  px               98      0.149727   3 C  px        
   190      0.149447   5 C  px                6      0.141354   1 C  px        
   196      0.135943   5 C  px              104      0.133782   3 C  px        
 
 Vector   19  Occ=1.000000D+00  E=-2.684886D-01
              MO Center=  7.5D-04, -1.2D-02,  7.7D-08, r^2= 3.0D+00
   Bfn.  Coefficient  Atom+Function         Bfn.  Coefficient  Atom+Function  
  ----- ------------  ---------------      ----- ------------  ---------------
    11      0.245542   1 C  pz              149     -0.238368   4 C  pz        
     8      0.193081   1 C  pz              146     -0.190571   4 C  pz        
    14      0.176496   1 C  pz              152     -0.171498   4 C  pz        
   103     -0.126347   3 C  pz              195     -0.126296   5 C  pz        
    57      0.114999   2 C  pz              241      0.115046   6 C  pz        
 
 Vector   20  Occ=1.000000D+00  E=-2.678574D-01
              MO Center= -3.9D-03,  6.2D-02,  2.8D-07, r^2= 3.1D+00
   Bfn.  Coefficient  Atom+Function         Bfn.  Coefficient  Atom+Function  
  ----- ------------  ---------------      ----- ------------  ---------------
   103      0.207418   3 C  pz              195     -0.207451   5 C  pz        
    57      0.203866   2 C  pz              241     -0.203840   6 C  pz        
   100      0.165255   3 C  pz              192     -0.165281   5 C  pz        
    54      0.163253   2 C  pz              238     -0.163232   6 C  pz        
    60      0.150545   2 C  pz              106      0.149919   3 C  pz        
 
 Vector   21  Occ=1.000000D+00  E=-2.484924D-01
              MO Center= -8.2D-02,  1.3D+00,  8.4D-08, r^2= 2.3D+00
   Bfn.  Coefficient  Atom+Function         Bfn.  Coefficient  Atom+Function  
  ----- ------------  ---------------      ----- ------------  ---------------
    10      0.386024   1 C  py               13      0.337232   1 C  py        
     5      0.335031   1 C  s                 7      0.299403   1 C  py        
     4      0.279337   1 C  s                 2      0.138308   1 C  s         
   243     -0.136062   6 C  py               59     -0.134030   2 C  py        
   102      0.112376   3 C  py              194      0.112395   5 C  py        
 
 Vector   22  Occ=0.000000D+00  E=-2.605131D-02
              MO Center= -4.3D-03,  6.8D-02, -9.0D-07, r^2= 4.3D+00
   Bfn.  Coefficient  Atom+Function         Bfn.  Coefficient  Atom+Function  
  ----- ------------  ---------------      ----- ------------  ---------------
   109     -0.319890   3 C  pz              201      0.319885   5 C  pz        
    63      0.314334   2 C  pz              247     -0.314330   6 C  pz        
    60      0.226930   2 C  pz              244     -0.226927   6 C  pz        
   106     -0.223713   3 C  pz              198      0.223709   5 C  pz        
    57      0.218722   2 C  pz              241     -0.218720   6 C  pz        
 
 Vector   23  Occ=0.000000D+00  E=-1.867870D-02
              MO Center=  2.9D-03, -4.6D-02, -4.2D-06, r^2= 4.3D+00
   Bfn.  Coefficient  Atom+Function         Bfn.  Coefficient  Atom+Function  
  ----- ------------  ---------------      ----- ------------  ---------------
   155      0.438591   4 C  pz               17      0.373669   1 C  pz        
   152      0.273166   4 C  pz               11      0.259385   1 C  pz        
   149      0.250431   4 C  pz               14      0.241197   1 C  pz        
   109     -0.225307   3 C  pz              201     -0.225310   5 C  pz        
     8      0.200964   1 C  pz               63     -0.198516   2 C  pz        
 
 Vector   24  Occ=0.000000D+00  E=-1.012175D-02
              MO Center=  6.0D-02, -9.6D-01, -1.5D-06, r^2= 2.0D+01
   Bfn.  Coefficient  Atom+Function         Bfn.  Coefficient  Atom+Function  
  ----- ------------  ---------------      ----- ------------  ---------------
     5      1.444959   1 C  s               279     -0.976577   7 H  s         
   371     -0.976622  11 H  s               326     -0.742358   9 H  s         
   303     -0.730244   8 H  s               349     -0.730161  10 H  s         
   302     -0.648872   8 H  s               348     -0.648769  10 H  s         
   325     -0.587216   9 H  s                51      0.564107   2 C  s         
 
 Vector   25  Occ=0.000000D+00  E= 4.377156D-03
              MO Center=  1.6D-02, -2.6D-01, -6.8D-06, r^2= 2.7D+01
   Bfn.  Coefficient  Atom+Function         Bfn.  Coefficient  Atom+Function  
  ----- ------------  ---------------      ----- ------------  ---------------
    51      2.728695   2 C  s               235     -2.729497   6 C  s         
    97      2.670064   3 C  s               189     -2.670056   5 C  s         
   303      1.994344   8 H  s               349     -1.994169  10 H  s         
    15      1.868863   1 C  px              153      1.803451   4 C  px        
   280      1.541490   7 H  s               372     -1.541944  11 H  s         
 
 Vector   26  Occ=0.000000D+00  E= 8.733245D-03
              MO Center=  4.6D-03, -7.1D-02,  6.3D-05, r^2= 2.7D+01
   Bfn.  Coefficient  Atom+Function         Bfn.  Coefficient  Atom+Function  
  ----- ------------  ---------------      ----- ------------  ---------------
   143      6.251257   4 C  s                51     -4.016850   2 C  s         
   235     -4.017813   6 C  s               326      2.931110   9 H  s         
     5      2.612889   1 C  s               280     -2.389303   7 H  s         
   372     -2.389774  11 H  s               154      1.945510   4 C  py        
   246      1.930305   6 C  py               62      1.825172   2 C  py        
 
 Vector   27  Occ=0.000000D+00  E= 2.669788D-02
              MO Center= -1.5D-02,  2.4D-01, -1.1D-05, r^2= 3.1D+01
   Bfn.  Coefficient  Atom+Function         Bfn.  Coefficient  Atom+Function  
  ----- ------------  ---------------      ----- ------------  ---------------
   280      3.928092   7 H  s               372     -3.928643  11 H  s         
    51      3.649734   2 C  s               235     -3.650591   6 C  s         
   303     -3.601965   8 H  s               349      3.602882  10 H  s         
    61      2.221845   2 C  px               97     -2.178186   3 C  s         
   189      2.177951   5 C  s               199     -2.039073   5 C  px        
 
 Vector   28  Occ=0.000000D+00  E= 3.223112D-02
              MO Center=  3.9D-02, -6.2D-01, -1.1D-04, r^2= 2.9D+01
   Bfn.  Coefficient  Atom+Function         Bfn.  Coefficient  Atom+Function  
  ----- ------------  ---------------      ----- ------------  ---------------
     5      6.437864   1 C  s               326     -4.999368   9 H  s         
   303      3.724817   8 H  s               349      3.724391  10 H  s         
    97     -2.190339   3 C  s               189     -2.190517   5 C  s         
   154     -2.172956   4 C  py              199     -1.645169   5 C  px        
   245      1.640817   6 C  px               61     -1.587010   2 C  px        
 
 Vector   29  Occ=0.000000D+00  E= 4.329298D-02
              MO Center=  1.4D-02, -2.2D-01,  8.0D-06, r^2= 1.3D+01
   Bfn.  Coefficient  Atom+Function         Bfn.  Coefficient  Atom+Function  
  ----- ------------  ---------------      ----- ------------  ---------------
   155      0.604105   4 C  pz               63      0.580359   2 C  pz        
   247      0.580348   6 C  pz               17     -0.264435   1 C  pz        
    60     -0.155995   2 C  pz              244     -0.156000   6 C  pz        
   289     -0.124383   7 H  pz              381     -0.124382  11 H  pz        
   259      0.119862   6 C  d -1             77      0.110878   2 C  d  1      
 
 Vector   30  Occ=0.000000D+00  E= 5.494534D-02
              MO Center=  9.4D-03, -1.5D-01, -4.2D-05, r^2= 1.5D+01
   Bfn.  Coefficient  Atom+Function         Bfn.  Coefficient  Atom+Function  
  ----- ------------  ---------------      ----- ------------  ---------------
     5     10.748460   1 C  s               143      5.289887   4 C  s         
    51     -4.503217   2 C  s               235     -4.503261   6 C  s         
   303     -2.818255   8 H  s               349     -2.818250  10 H  s         
   326      2.079702   9 H  s               199      2.010979   5 C  px        
    97     -1.959040   3 C  s               189     -1.959025   5 C  s         
 
 Vector   31  Occ=0.000000D+00  E= 6.332889D-02
              MO Center= -4.0D-02,  6.4D-01, -1.1D-04, r^2= 2.8D+01
   Bfn.  Coefficient  Atom+Function         Bfn.  Coefficient  Atom+Function  
  ----- ------------  ---------------      ----- ------------  ---------------
     5     24.302803   1 C  s                51     -9.816639   2 C  s         
   235     -9.815992   6 C  s               143      7.576755   4 C  s         
    97     -6.490827   3 C  s               189     -6.490646   5 C  s         
   326      5.872724   9 H  s               154      4.773497   4 C  py        
   303     -4.677824   8 H  s               349     -4.677886  10 H  s         
 
 Vector   32  Occ=0.000000D+00  E= 6.574506D-02
              MO Center=  1.6D-03, -2.5D-02,  5.2D-04, r^2= 1.8D+01
   Bfn.  Coefficient  Atom+Function         Bfn.  Coefficient  Atom+Function  
  ----- ------------  ---------------      ----- ------------  ---------------
   109      0.976796   3 C  pz              201     -0.976778   5 C  pz        
    63      0.769806   2 C  pz              247     -0.769807   6 C  pz        
   169     -0.683411   4 C  d  1             31     -0.576152   1 C  d  1      
   106      0.492178   3 C  pz              198     -0.492179   5 C  pz        
    60      0.487614   2 C  pz              244     -0.487607   6 C  pz        
 
 Vector   33  Occ=0.000000D+00  E= 6.826557D-02
              MO Center= -1.2D-02,  1.9D-01, -2.8D-04, r^2= 1.8D+01
   Bfn.  Coefficient  Atom+Function         Bfn.  Coefficient  Atom+Function  
  ----- ------------  ---------------      ----- ------------  ---------------
    63      1.024895   2 C  pz              247      1.024890   6 C  pz        
   109     -0.811337   3 C  pz              201     -0.811328   5 C  pz        
   155     -0.751127   4 C  pz               14      0.627908   1 C  pz        
   152     -0.618265   4 C  pz               17      0.458024   1 C  pz        
   213     -0.450115   5 C  d -1            121     -0.406340   3 C  d -1      
 
 Vector   34  Occ=0.000000D+00  E= 7.645607D-02
              MO Center=  1.1D-02, -1.6D-01, -1.2D-04, r^2= 3.4D+01
   Bfn.  Coefficient  Atom+Function         Bfn.  Coefficient  Atom+Function  
  ----- ------------  ---------------      ----- ------------  ---------------
    51     13.835936   2 C  s               235    -13.847619   6 C  s         
    97     12.406840   3 C  s               189    -12.405233   5 C  s         
    15      7.688246   1 C  px              153      7.686216   4 C  px        
   107      4.740702   3 C  px              303      4.686732   8 H  s         
   349     -4.685793  10 H  s               199      4.443326   5 C  px        
 
 Vector   35  Occ=0.000000D+00  E= 7.790158D-02
              MO Center=  2.1D-01, -3.3D+00,  1.3D-04, r^2= 2.1D+01
   Bfn.  Coefficient  Atom+Function         Bfn.  Coefficient  Atom+Function  
  ----- ------------  ---------------      ----- ------------  ---------------
   143     18.233090   4 C  s                51    -13.438399   2 C  s         
   235    -13.431624   6 C  s               326      7.010883   9 H  s         
    62      5.632531   2 C  py              246      5.658406   6 C  py        
   200      5.389924   5 C  py              154      5.257289   4 C  py        
   108      5.033510   3 C  py              279      4.198206   7 H  s         
 
 Vector   36  Occ=0.000000D+00  E= 8.156900D-02
              MO Center= -8.9D-02,  1.4D+00,  8.4D-05, r^2= 2.8D+01
   Bfn.  Coefficient  Atom+Function         Bfn.  Coefficient  Atom+Function  
  ----- ------------  ---------------      ----- ------------  ---------------
   143     20.728069   4 C  s                51     -8.972942   2 C  s         
   235     -8.973550   6 C  s               246      5.260531   6 C  py        
    62      5.162263   2 C  py              325     -4.957873   9 H  s         
   280     -4.573085   7 H  s               372     -4.574091  11 H  s         
   200      4.494962   5 C  py              326      4.509776   9 H  s         
 
 Vector   37  Occ=0.000000D+00  E= 8.319373D-02
              MO Center=  4.5D-02, -7.2D-01, -1.1D-05, r^2= 2.2D+01
   Bfn.  Coefficient  Atom+Function         Bfn.  Coefficient  Atom+Function  
  ----- ------------  ---------------      ----- ------------  ---------------
    97      4.882508   3 C  s               189     -4.879636   5 C  s         
    51     -3.039415   2 C  s               235      3.033352   6 C  s         
   108      2.773589   3 C  py              303      2.784048   8 H  s         
   349     -2.784559  10 H  s               200     -2.658605   5 C  py        
   153      2.615533   4 C  px               96      2.040166   3 C  s         
 
 Vector   38  Occ=0.000000D+00  E= 9.537140D-02
              MO Center= -5.5D-02,  8.7D-01,  9.4D-06, r^2= 3.1D+01
   Bfn.  Coefficient  Atom+Function         Bfn.  Coefficient  Atom+Function  
  ----- ------------  ---------------      ----- ------------  ---------------
    51     17.711051   2 C  s               235    -17.708598   6 C  s         
   280      7.213561   7 H  s               372     -7.213096  11 H  s         
    97     -6.861102   3 C  s               189      6.859449   5 C  s         
   108     -6.483424   3 C  py              303     -6.206409   8 H  s         
   349      6.207524  10 H  s               200      5.939358   5 C  py        
 
 Vector   39  Occ=0.000000D+00  E= 1.018046D-01
              MO Center= -7.3D-03,  1.2D-01, -3.3D-04, r^2= 1.9D+01
   Bfn.  Coefficient  Atom+Function         Bfn.  Coefficient  Atom+Function  
  ----- ------------  ---------------      ----- ------------  ---------------
    51     13.682602   2 C  s               235    -13.683166   6 C  s         
    97     10.889395   3 C  s               189    -10.888987   5 C  s         
    15     10.003257   1 C  px              153      9.684174   4 C  px        
   246     -6.116757   6 C  py              108     -5.985823   3 C  py        
    62      5.931028   2 C  py              200      5.953422   5 C  py        
 
 Vector   40  Occ=0.000000D+00  E= 1.064966D-01
              MO Center= -8.3D-03,  1.3D-01, -5.9D-04, r^2= 2.1D+01
   Bfn.  Coefficient  Atom+Function         Bfn.  Coefficient  Atom+Function  
  ----- ------------  ---------------      ----- ------------  ---------------
   143     18.328086   4 C  s                51     -9.967276   2 C  s         
   235     -9.969086   6 C  s                 5     -9.451239   1 C  s         
   107     -8.746841   3 C  px              199      7.960631   5 C  px        
   245     -7.037526   6 C  px              200      6.764561   5 C  py        
    61      6.479159   2 C  px              108      5.711321   3 C  py        
 
 Vector   41  Occ=0.000000D+00  E= 1.081989D-01
              MO Center= -1.0D-02,  1.6D-01, -9.3D-05, r^2= 2.2D+01
   Bfn.  Coefficient  Atom+Function         Bfn.  Coefficient  Atom+Function  
  ----- ------------  ---------------      ----- ------------  ---------------
    63      3.389152   2 C  pz              247     -3.389113   6 C  pz        
   109     -3.363283   3 C  pz              201      3.364079   5 C  pz        
    60      0.696203   2 C  pz              244     -0.696188   6 C  pz        
   106     -0.636385   3 C  pz              198      0.636530   5 C  pz        
    77     -0.380158   2 C  d  1            215      0.361067   5 C  d  1      
 
 Vector   42  Occ=0.000000D+00  E= 1.089470D-01
              MO Center=  3.0D-02, -4.8D-01,  2.0D-03, r^2= 2.1D+01
   Bfn.  Coefficient  Atom+Function         Bfn.  Coefficient  Atom+Function  
  ----- ------------  ---------------      ----- ------------  ---------------
   155      5.338248   4 C  pz              109     -3.459775   3 C  pz        
   201     -3.459098   5 C  pz               17      2.486981   1 C  pz        
   152      0.985236   4 C  pz              106     -0.605014   3 C  pz        
   198     -0.604890   5 C  pz              167      0.568813   4 C  d -1      
    14      0.500062   1 C  pz               63     -0.455027   2 C  pz        
 
 Vector   43  Occ=0.000000D+00  E= 1.095396D-01
              MO Center=  2.8D-02, -4.5D-01, -9.7D-04, r^2= 2.7D+01
   Bfn.  Coefficient  Atom+Function         Bfn.  Coefficient  Atom+Function  
  ----- ------------  ---------------      ----- ------------  ---------------
   326      7.701390   9 H  s               154      7.026950   4 C  py        
   303     -6.504904   8 H  s               349     -6.504336  10 H  s         
   143     -5.467801   4 C  s               108     -4.381187   3 C  py        
    62     -4.109026   2 C  py              200     -4.125900   5 C  py        
   246     -4.097790   6 C  py                4      3.940677   1 C  s         
 
 Vector   44  Occ=0.000000D+00  E= 1.177470D-01
              MO Center= -4.2D-02,  6.6D-01, -4.3D-04, r^2= 1.4D+01
   Bfn.  Coefficient  Atom+Function         Bfn.  Coefficient  Atom+Function  
  ----- ------------  ---------------      ----- ------------  ---------------
    17      6.865913   1 C  pz               63     -6.005659   2 C  pz        
   247     -6.005598   6 C  pz              109      5.027446   3 C  pz        
   201      5.027381   5 C  pz              155     -4.792510   4 C  pz        
    14      1.235074   1 C  pz               60     -1.018812   2 C  pz        
   244     -1.018799   6 C  pz              106      0.889223   3 C  pz        
 
 Vector   45  Occ=0.000000D+00  E= 1.264022D-01
              MO Center= -1.8D-02,  2.9D-01, -2.6D-05, r^2= 2.5D+01
   Bfn.  Coefficient  Atom+Function         Bfn.  Coefficient  Atom+Function  
  ----- ------------  ---------------      ----- ------------  ---------------
    51      7.560734   2 C  s               235     -7.559499   6 C  s         
   107      7.209123   3 C  px              199      7.135132   5 C  px        
   245     -7.024396   6 C  px               61     -6.912201   2 C  px        
    15      6.415859   1 C  px               97     -6.198703   3 C  s         
   189      6.199564   5 C  s               153     -5.841800   4 C  px        
 
 Vector   46  Occ=0.000000D+00  E= 1.274516D-01
              MO Center= -1.2D-02,  1.8D-01,  1.3D-04, r^2= 2.6D+01
   Bfn.  Coefficient  Atom+Function         Bfn.  Coefficient  Atom+Function  
  ----- ------------  ---------------      ----- ------------  ---------------
   154     -8.050080   4 C  py               16      7.411058   1 C  py        
   108      6.893894   3 C  py               62     -6.569437   2 C  py        
   200      6.575681   5 C  py              246     -6.376340   6 C  py        
   326     -4.070369   9 H  s                 5      3.552973   1 C  s         
   303      3.175003   8 H  s               349      3.174220  10 H  s         
 
 Vector   47  Occ=0.000000D+00  E= 1.608667D-01
              MO Center= -8.3D-03,  1.3D-01,  8.6D-05, r^2= 1.7D+01
   Bfn.  Coefficient  Atom+Function         Bfn.  Coefficient  Atom+Function  
  ----- ------------  ---------------      ----- ------------  ---------------
    17      8.179382   1 C  pz               63     -7.998854   2 C  pz        
   247     -7.998883   6 C  pz              155     -7.873867   4 C  pz        
   109      7.781745   3 C  pz              201      7.781774   5 C  pz        
   106      1.196317   3 C  pz              198      1.196329   5 C  pz        
    60     -1.190072   2 C  pz              244     -1.190084   6 C  pz        
 
 Vector   48  Occ=0.000000D+00  E= 1.658854D-01
              MO Center= -8.9D-02,  1.4D+00,  3.3D-04, r^2= 2.2D+01
   Bfn.  Coefficient  Atom+Function         Bfn.  Coefficient  Atom+Function  
  ----- ------------  ---------------      ----- ------------  ---------------
     5     59.122391   1 C  s                51    -25.921276   2 C  s         
   143     25.892714   4 C  s               235    -25.922923   6 C  s         
    97    -14.385721   3 C  s               189    -14.385198   5 C  s         
   154      7.423712   4 C  py              245      6.822204   6 C  px        
    61     -6.407347   2 C  px              326      6.156524   9 H  s         
 
 Vector   49  Occ=0.000000D+00  E= 1.754263D-01
              MO Center=  2.5D-02, -3.9D-01, -1.8D-04, r^2= 1.1D+01
   Bfn.  Coefficient  Atom+Function         Bfn.  Coefficient  Atom+Function  
  ----- ------------  ---------------      ----- ------------  ---------------
   335      1.104245   9 H  pz              312      1.080669   8 H  pz        
   358      1.080653  10 H  pz               17      0.978591   1 C  pz        
   289      0.971544   7 H  pz              381      0.971530  11 H  pz        
    63     -0.902848   2 C  pz              247     -0.902838   6 C  pz        
   106     -0.839441   3 C  pz              198     -0.839423   5 C  pz        
 
 Vector   50  Occ=0.000000D+00  E= 1.864643D-01
              MO Center=  3.4D-02, -5.5D-01,  9.8D-05, r^2= 1.5D+01
   Bfn.  Coefficient  Atom+Function         Bfn.  Coefficient  Atom+Function  
  ----- ------------  ---------------      ----- ------------  ---------------
     5     15.540551   1 C  s                97     -7.291849   3 C  s         
   189     -7.291450   5 C  s               325      4.465914   9 H  s         
    51     -4.431961   2 C  s               235     -4.431500   6 C  s         
    62     -4.069138   2 C  py              154      3.986008   4 C  py        
   246     -3.846756   6 C  py              302      3.266921   8 H  s         
 
 Vector   51  Occ=0.000000D+00  E= 1.980444D-01
              MO Center= -2.9D-02,  4.7D-01,  3.5D-04, r^2= 2.3D+01
   Bfn.  Coefficient  Atom+Function         Bfn.  Coefficient  Atom+Function  
  ----- ------------  ---------------      ----- ------------  ---------------
    51     44.571289   2 C  s               235    -44.607023   6 C  s         
    97     25.195857   3 C  s               189    -25.185639   5 C  s         
    15     18.551487   1 C  px              153     17.017090   4 C  px        
   302    -14.002132   8 H  s               348     13.999053  10 H  s         
   200      9.182042   5 C  py              108     -8.456932   3 C  py        
 
 Vector   52  Occ=0.000000D+00  E= 1.984266D-01
              MO Center=  4.6D-02, -7.4D-01, -5.0D-04, r^2= 2.3D+01
   Bfn.  Coefficient  Atom+Function         Bfn.  Coefficient  Atom+Function  
  ----- ------------  ---------------      ----- ------------  ---------------
   143     61.148638   4 C  s                51    -34.479084   2 C  s         
   235    -34.432707   6 C  s               325    -16.813927   9 H  s         
    62     14.662476   2 C  py              246     14.399588   6 C  py        
   200     13.754237   5 C  py              108     12.559241   3 C  py        
     5    -11.573538   1 C  s               279     11.170929   7 H  s         
 
 Vector   53  Occ=0.000000D+00  E= 2.154540D-01
              MO Center=  8.9D-02, -1.4D+00, -3.6D-05, r^2= 1.5D+01
   Bfn.  Coefficient  Atom+Function         Bfn.  Coefficient  Atom+Function  
  ----- ------------  ---------------      ----- ------------  ---------------
    97     13.647462   3 C  s               189    -13.646924   5 C  s         
    96      6.492211   3 C  s               188     -6.492536   5 C  s         
   153      6.159791   4 C  px              279     -5.077309   7 H  s         
   371      5.077769  11 H  s               303      4.761735   8 H  s         
   349     -4.761817  10 H  s               246     -4.378487   6 C  py        
 
 Vector   54  Occ=0.000000D+00  E= 2.181836D-01
              MO Center=  1.6D-02, -2.6D-01, -1.8D-04, r^2= 1.5D+01
   Bfn.  Coefficient  Atom+Function         Bfn.  Coefficient  Atom+Function  
  ----- ------------  ---------------      ----- ------------  ---------------
   143     26.304392   4 C  s                51    -18.140105   2 C  s         
   235    -18.144694   6 C  s                 5     16.103318   1 C  s         
    16     -6.505810   1 C  py              325     -6.143688   9 H  s         
    62      4.905770   2 C  py              246      4.785577   6 C  py        
   279      3.800430   7 H  s               371      3.800657  11 H  s         
 
 Vector   55  Occ=0.000000D+00  E= 2.191092D-01
              MO Center=  3.4D-03, -5.3D-02,  1.1D-03, r^2= 1.5D+01
   Bfn.  Coefficient  Atom+Function         Bfn.  Coefficient  Atom+Function  
  ----- ------------  ---------------      ----- ------------  ---------------
    51     19.750074   2 C  s               235    -19.746743   6 C  s         
   108     -8.412028   3 C  py              200      8.059216   5 C  py        
    15      7.633827   1 C  px              302     -6.928019   8 H  s         
   348      6.928015  10 H  s               153      6.409443   4 C  px        
   246     -4.130843   6 C  py               62      3.989915   2 C  py        
 
 Vector   56  Occ=0.000000D+00  E= 2.301114D-01
              MO Center= -2.0D-02,  3.2D-01,  1.9D-03, r^2= 1.8D+01
   Bfn.  Coefficient  Atom+Function         Bfn.  Coefficient  Atom+Function  
  ----- ------------  ---------------      ----- ------------  ---------------
   199      4.923806   5 C  px              107      4.649667   3 C  px        
   153     -3.454870   4 C  px              303      3.210634   8 H  s         
   349     -3.210316  10 H  s                50     -3.148096   2 C  s         
   234      3.147962   6 C  s                15     -2.594480   1 C  px        
   108      2.482692   3 C  py               59      2.113952   2 C  py        
 
 Vector   57  Occ=0.000000D+00  E= 2.311903D-01
              MO Center= -2.3D-05,  5.3D-04, -3.8D-03, r^2= 1.6D+01
   Bfn.  Coefficient  Atom+Function         Bfn.  Coefficient  Atom+Function  
  ----- ------------  ---------------      ----- ------------  ---------------
   106      2.140296   3 C  pz              198     -2.140302   5 C  pz        
    60      2.047738   2 C  pz              244     -2.047727   6 C  pz        
   312     -1.817992   8 H  pz              358      1.817997  10 H  pz        
   289     -1.720885   7 H  pz              381      1.720890  11 H  pz        
   169     -1.387128   4 C  d  1             31     -1.238009   1 C  d  1      
 
 Vector   58  Occ=0.000000D+00  E= 2.355158D-01
              MO Center= -1.2D-02,  2.0D-01,  4.8D-04, r^2= 1.6D+01
   Bfn.  Coefficient  Atom+Function         Bfn.  Coefficient  Atom+Function  
  ----- ------------  ---------------      ----- ------------  ---------------
   143     14.821557   4 C  s                51    -10.395825   2 C  s         
   235    -10.395392   6 C  s               107     -8.188662   3 C  px        
   199      7.762052   5 C  px               61      5.411893   2 C  px        
   245     -5.289859   6 C  px              303     -4.441051   8 H  s         
   349     -4.441304  10 H  s                 5      3.961771   1 C  s         
 
 Vector   59  Occ=0.000000D+00  E= 2.365409D-01
              MO Center= -2.3D-03,  3.7D-02,  1.0D-03, r^2= 1.7D+01
   Bfn.  Coefficient  Atom+Function         Bfn.  Coefficient  Atom+Function  
  ----- ------------  ---------------      ----- ------------  ---------------
    97    -33.141309   3 C  s               189     33.141395   5 C  s         
    51     31.362246   2 C  s               235    -31.362424   6 C  s         
    96    -14.364317   3 C  s               188     14.364568   5 C  s         
   279     10.801334   7 H  s               371    -10.801211  11 H  s         
   302    -10.639753   8 H  s               348     10.639727  10 H  s         
 
 Vector   60  Occ=0.000000D+00  E= 2.434618D-01
              MO Center=  2.7D-03, -4.4D-02, -4.6D-04, r^2= 1.5D+01
   Bfn.  Coefficient  Atom+Function         Bfn.  Coefficient  Atom+Function  
  ----- ------------  ---------------      ----- ------------  ---------------
   152      3.412717   4 C  pz               14     -3.022423   1 C  pz        
   289      2.170788   7 H  pz              381      2.170791  11 H  pz        
   335     -2.125235   9 H  pz              261      2.001344   6 C  d  1      
    77     -1.986187   2 C  d  1             63     -1.601817   2 C  pz        
   247     -1.601794   6 C  pz              155      1.370882   4 C  pz        
 
 Vector   61  Occ=0.000000D+00  E= 2.594839D-01
              MO Center=  3.8D-02, -6.0D-01,  6.6D-05, r^2= 1.7D+01
   Bfn.  Coefficient  Atom+Function         Bfn.  Coefficient  Atom+Function  
  ----- ------------  ---------------      ----- ------------  ---------------
     5      8.708719   1 C  s               108     -6.672318   3 C  py        
   200     -6.083608   5 C  py              303     -5.193201   8 H  s         
   349     -5.193955  10 H  s               199      5.081470   5 C  px        
   197     -4.840819   5 C  py              143     -4.805566   4 C  s         
   105     -4.738143   3 C  py              154      4.400742   4 C  py        
 
 Vector   62  Occ=0.000000D+00  E= 2.619779D-01
              MO Center=  6.9D-02, -1.1D+00, -5.5D-05, r^2= 1.7D+01
   Bfn.  Coefficient  Atom+Function         Bfn.  Coefficient  Atom+Function  
  ----- ------------  ---------------      ----- ------------  ---------------
     5     18.823962   1 C  s               154     15.362046   4 C  py        
   143     15.051417   4 C  s                51    -14.501832   2 C  s         
   235    -14.502512   6 C  s               326      9.183345   9 H  s         
     4      5.979997   1 C  s               108     -4.765374   3 C  py        
    97     -4.626391   3 C  s               189     -4.625731   5 C  s         
 
 Vector   63  Occ=0.000000D+00  E= 2.676108D-01
              MO Center= -2.8D-02,  4.3D-01,  6.1D-05, r^2= 2.0D+01
   Bfn.  Coefficient  Atom+Function         Bfn.  Coefficient  Atom+Function  
  ----- ------------  ---------------      ----- ------------  ---------------
    51     20.187292   2 C  s               235    -20.187418   6 C  s         
    97    -11.869367   3 C  s               189     11.868908   5 C  s         
    61     11.000479   2 C  px              245     10.251353   6 C  px        
    96     -8.754733   3 C  s               188      8.755151   5 C  s         
   279      8.747194   7 H  s               371     -8.747165  11 H  s         
 
 Vector   64  Occ=0.000000D+00  E= 2.748053D-01
              MO Center= -1.3D-03,  2.0D-02,  6.8D-05, r^2= 1.4D+01
   Bfn.  Coefficient  Atom+Function         Bfn.  Coefficient  Atom+Function  
  ----- ------------  ---------------      ----- ------------  ---------------
   143      9.056329   4 C  s                 5      8.768957   1 C  s         
   154      5.824195   4 C  py              279     -5.695089   7 H  s         
   371     -5.694079  11 H  s               302     -4.621322   8 H  s         
   348     -4.621568  10 H  s               325     -4.317178   9 H  s         
    16     -4.025405   1 C  py              246      3.272224   6 C  py        
 
 Vector   65  Occ=0.000000D+00  E= 2.830155D-01
              MO Center= -1.1D-02,  1.8D-01, -1.8D-05, r^2= 1.6D+01
   Bfn.  Coefficient  Atom+Function         Bfn.  Coefficient  Atom+Function  
  ----- ------------  ---------------      ----- ------------  ---------------
    12      9.539978   1 C  px               97      8.939894   3 C  s         
   189     -8.939760   5 C  s                51     -8.121627   2 C  s         
   235      8.121351   6 C  s               302      8.157843   8 H  s         
   348     -8.157744  10 H  s               199      7.661657   5 C  px        
   107      7.184769   3 C  px              150      6.221582   4 C  px        
 
 Vector   66  Occ=0.000000D+00  E= 2.953914D-01
              MO Center= -2.6D-03,  4.1D-02, -2.4D-05, r^2= 1.6D+01
   Bfn.  Coefficient  Atom+Function         Bfn.  Coefficient  Atom+Function  
  ----- ------------  ---------------      ----- ------------  ---------------
    63      3.196369   2 C  pz              109     -3.187433   3 C  pz        
   201      3.187352   5 C  pz              247     -3.196298   6 C  pz        
   289     -2.278047   7 H  pz              381      2.278057  11 H  pz        
    60      2.252058   2 C  pz              244     -2.252032   6 C  pz        
   312      2.260711   8 H  pz              358     -2.260702  10 H  pz        
 
 Vector   67  Occ=0.000000D+00  E= 2.962037D-01
              MO Center= -6.1D-02,  9.7D-01,  4.1D-04, r^2= 1.4D+01
   Bfn.  Coefficient  Atom+Function         Bfn.  Coefficient  Atom+Function  
  ----- ------------  ---------------      ----- ------------  ---------------
     4     10.448051   1 C  s                59     -5.721802   2 C  py        
   243     -5.614812   6 C  py                5      5.530586   1 C  s         
   105     -5.515926   3 C  py              197     -5.128786   5 C  py        
    16      4.259753   1 C  py              279     -4.192597   7 H  s         
   371     -4.192432  11 H  s                13      3.900237   1 C  py        
 
 Vector   68  Occ=0.000000D+00  E= 3.080911D-01
              MO Center=  1.7D-02, -2.6D-01, -4.6D-04, r^2= 1.5D+01
   Bfn.  Coefficient  Atom+Function         Bfn.  Coefficient  Atom+Function  
  ----- ------------  ---------------      ----- ------------  ---------------
   155      5.175130   4 C  pz               14      4.359606   1 C  pz        
   109     -3.735650   3 C  pz              201     -3.735652   5 C  pz        
   335     -2.706455   9 H  pz               60     -2.047341   2 C  pz        
   244     -2.047329   6 C  pz              152      1.857221   4 C  pz        
    17      1.847174   1 C  pz               29     -1.722043   1 C  d -1      
 
 Vector   69  Occ=0.000000D+00  E= 3.150939D-01
              MO Center=  3.2D-03, -5.1D-02,  1.8D-05, r^2= 9.1D+00
   Bfn.  Coefficient  Atom+Function         Bfn.  Coefficient  Atom+Function  
  ----- ------------  ---------------      ----- ------------  ---------------
   261      1.238742   6 C  d  1             77      1.115532   2 C  d  1      
   169     -1.081987   4 C  d  1             75     -1.051421   2 C  d -1      
   259      0.903110   6 C  d -1            289     -0.715274   7 H  pz        
   381      0.715271  11 H  pz               31      0.634280   1 C  d  1      
    60     -0.294494   2 C  pz              244      0.294566   6 C  pz        
 
 Vector   70  Occ=0.000000D+00  E= 3.284554D-01
              MO Center=  3.9D-02, -6.3D-01,  7.3D-05, r^2= 1.5D+01
   Bfn.  Coefficient  Atom+Function         Bfn.  Coefficient  Atom+Function  
  ----- ------------  ---------------      ----- ------------  ---------------
   142     12.165043   4 C  s                96      8.676488   3 C  s         
   188      8.676504   5 C  s               151     -6.866260   4 C  py        
   325     -5.916924   9 H  s                 4     -5.197843   1 C  s         
   334     -5.018124   9 H  py                5      4.870206   1 C  s         
   302     -4.419432   8 H  s               348     -4.419270  10 H  s         
 
 Vector   71  Occ=0.000000D+00  E= 3.346981D-01
              MO Center= -1.6D-03,  2.5D-02,  1.9D-04, r^2= 7.7D+00
   Bfn.  Coefficient  Atom+Function         Bfn.  Coefficient  Atom+Function  
  ----- ------------  ---------------      ----- ------------  ---------------
   289      2.034191   7 H  pz              381      2.034230  11 H  pz        
   335      1.860268   9 H  pz               14     -1.777244   1 C  pz        
   155     -1.715724   4 C  pz               63     -1.561308   2 C  pz        
   247     -1.561308   6 C  pz               77     -1.517816   2 C  d  1      
   261      1.417664   6 C  d  1            106     -1.298411   3 C  pz        
 
 Vector   72  Occ=0.000000D+00  E= 3.433798D-01
              MO Center=  2.3D-02, -3.7D-01, -4.5D-03, r^2= 1.2D+01
   Bfn.  Coefficient  Atom+Function         Bfn.  Coefficient  Atom+Function  
  ----- ------------  ---------------      ----- ------------  ---------------
   169      3.324392   4 C  d  1             31      2.680583   1 C  d  1      
   312     -2.459924   8 H  pz              358      2.459758  10 H  pz        
   123      2.177872   3 C  d  1            215      2.131801   5 C  d  1      
   106     -1.777089   3 C  pz              198      1.777080   5 C  pz        
   289     -1.452282   7 H  pz              381      1.452349  11 H  pz        
 
 Vector   73  Occ=0.000000D+00  E= 3.446295D-01
              MO Center= -3.6D-02,  5.7D-01, -1.8D-03, r^2= 1.2D+01
   Bfn.  Coefficient  Atom+Function         Bfn.  Coefficient  Atom+Function  
  ----- ------------  ---------------      ----- ------------  ---------------
   143     23.935847   4 C  s               325    -13.052899   9 H  s         
    51    -12.012209   2 C  s               235    -12.011984   6 C  s         
   279     11.685979   7 H  s               371     11.685346  11 H  s         
     5     -6.899475   1 C  s               197     -6.852162   5 C  py        
   105     -6.722999   3 C  py              243     -6.061815   6 C  py        
 
 Vector   74  Occ=0.000000D+00  E= 3.478107D-01
              MO Center=  9.6D-03, -1.5D-01,  4.1D-03, r^2= 1.2D+01
   Bfn.  Coefficient  Atom+Function         Bfn.  Coefficient  Atom+Function  
  ----- ------------  ---------------      ----- ------------  ---------------
    51     21.164409   2 C  s               235    -21.163260   6 C  s         
   302    -11.971495   8 H  s               348     11.972098  10 H  s         
    97     10.968958   3 C  s               189    -10.969812   5 C  s         
   279     -9.778462   7 H  s               371      9.776763  11 H  s         
    12     -8.078313   1 C  px              150     -7.028296   4 C  px        
 
 Vector   75  Occ=0.000000D+00  E= 3.482294D-01
              MO Center=  3.2D-02, -5.0D-01,  2.9D-03, r^2= 1.3D+01
   Bfn.  Coefficient  Atom+Function         Bfn.  Coefficient  Atom+Function  
  ----- ------------  ---------------      ----- ------------  ---------------
   155     -4.063261   4 C  pz               17      3.892680   1 C  pz        
   109      3.656527   3 C  pz              201      3.656581   5 C  pz        
    63     -3.556257   2 C  pz              247     -3.556274   6 C  pz        
   152     -2.984863   4 C  pz              213     -2.306276   5 C  d -1      
   289      2.268434   7 H  pz              381      2.268487  11 H  pz        
 
 Vector   76  Occ=0.000000D+00  E= 3.526456D-01
              MO Center=  3.5D-02, -5.5D-01, -2.5D-04, r^2= 1.4D+01
   Bfn.  Coefficient  Atom+Function         Bfn.  Coefficient  Atom+Function  
  ----- ------------  ---------------      ----- ------------  ---------------
    17      6.298980   1 C  pz               63     -5.778361   2 C  pz        
   247     -5.778379   6 C  pz              109      5.054757   3 C  pz        
   201      5.054763   5 C  pz              155     -4.778058   4 C  pz        
   335      4.002007   9 H  pz               14      3.751350   1 C  pz        
   167      3.124421   4 C  d -1             60     -2.665210   2 C  pz        
 
 Vector   77  Occ=0.000000D+00  E= 3.546265D-01
              MO Center= -2.0D-02,  3.1D-01, -6.6D-04, r^2= 1.5D+01
   Bfn.  Coefficient  Atom+Function         Bfn.  Coefficient  Atom+Function  
  ----- ------------  ---------------      ----- ------------  ---------------
     5     31.590703   1 C  s                51    -15.350465   2 C  s         
   235    -15.348896   6 C  s               143     15.137113   4 C  s         
   151    -10.992248   4 C  py              196     -7.581784   5 C  px        
    50      7.378490   2 C  s               234      7.378243   6 C  s         
    13      7.254154   1 C  py              279     -7.243065   7 H  s         
 
 Vector   78  Occ=0.000000D+00  E= 3.597627D-01
              MO Center= -4.5D-02,  7.2D-01,  2.4D-04, r^2= 1.3D+01
   Bfn.  Coefficient  Atom+Function         Bfn.  Coefficient  Atom+Function  
  ----- ------------  ---------------      ----- ------------  ---------------
   289      3.394481   7 H  pz              381     -3.394511  11 H  pz        
    60      3.153143   2 C  pz              244     -3.153128   6 C  pz        
    77     -3.082911   2 C  d  1            121     -3.095076   3 C  d -1      
   259      3.022406   6 C  d -1            213      2.791933   5 C  d -1      
   312     -2.784164   8 H  pz              358      2.784140  10 H  pz        
 
 Vector   79  Occ=0.000000D+00  E= 3.685902D-01
              MO Center=  3.6D-02, -5.7D-01, -1.4D-04, r^2= 1.3D+01
   Bfn.  Coefficient  Atom+Function         Bfn.  Coefficient  Atom+Function  
  ----- ------------  ---------------      ----- ------------  ---------------
    96     10.810629   3 C  s               188     10.810351   5 C  s         
   104     -8.480006   3 C  px              196      8.465881   5 C  px        
     5      7.548281   1 C  s               142     -7.521318   4 C  s         
   212      5.356186   5 C  d -2            258      5.307007   6 C  d -2      
   120     -5.185134   3 C  d -2            242     -5.058629   6 C  px        
 
 Vector   80  Occ=0.000000D+00  E= 3.719614D-01
              MO Center=  2.0D-02, -3.2D-01, -2.2D-04, r^2= 1.3D+01
   Bfn.  Coefficient  Atom+Function         Bfn.  Coefficient  Atom+Function  
  ----- ------------  ---------------      ----- ------------  ---------------
    97      9.809919   3 C  s               189     -9.809451   5 C  s         
    50      9.022925   2 C  s               234     -9.022601   6 C  s         
   279     -5.569142   7 H  s               371      5.569852  11 H  s         
   357      5.251579  10 H  py              311     -5.133232   8 H  py        
    51     -4.880214   2 C  s               212     -4.874629   5 C  d -2      
 
 Vector   81  Occ=0.000000D+00  E= 3.818939D-01
              MO Center=  3.6D-02, -5.7D-01, -8.7D-07, r^2= 1.6D+01
   Bfn.  Coefficient  Atom+Function         Bfn.  Coefficient  Atom+Function  
  ----- ------------  ---------------      ----- ------------  ---------------
   166      9.088353   4 C  d -2            333      7.143021   9 H  px        
   150     -6.680224   4 C  px              216     -6.553613   5 C  d  2      
   124      6.104483   3 C  d  2            279      5.810929   7 H  s         
   371     -5.810960  11 H  s               310      5.065482   8 H  px        
   356      4.998580  10 H  px               96     -4.831724   3 C  s         
 
 Vector   82  Occ=0.000000D+00  E= 3.931245D-01
              MO Center= -2.9D-02,  4.7D-01,  2.0D-04, r^2= 1.5D+01
   Bfn.  Coefficient  Atom+Function         Bfn.  Coefficient  Atom+Function  
  ----- ------------  ---------------      ----- ------------  ---------------
    12     12.145589   1 C  px               51    -11.139863   2 C  s         
   235     11.139978   6 C  s                78     -9.049308   2 C  d  2      
   262      8.717540   6 C  d  2             15     -6.864751   1 C  px        
   216      6.691356   5 C  d  2            124     -5.843319   3 C  d  2      
   153     -5.846467   4 C  px              379     -5.839237  11 H  px        
 
 Vector   83  Occ=0.000000D+00  E= 3.958635D-01
              MO Center= -5.2D-02,  8.3D-01,  1.7D-04, r^2= 1.2D+01
   Bfn.  Coefficient  Atom+Function         Bfn.  Coefficient  Atom+Function  
  ----- ------------  ---------------      ----- ------------  ---------------
   152     -7.533986   4 C  pz              106      7.340255   3 C  pz        
   198      7.340304   5 C  pz               60     -6.484610   2 C  pz        
   244     -6.484629   6 C  pz              167     -6.332124   4 C  d -1      
   215      5.113030   5 C  d  1            123     -4.706098   3 C  d  1      
    14      4.586222   1 C  pz              259      4.021210   6 C  d -1      
 
 Vector   84  Occ=0.000000D+00  E= 4.016552D-01
              MO Center= -3.2D-02,  5.1D-01, -7.0D-04, r^2= 1.5D+01
   Bfn.  Coefficient  Atom+Function         Bfn.  Coefficient  Atom+Function  
  ----- ------------  ---------------      ----- ------------  ---------------
     5     51.446125   1 C  s                51    -19.869262   2 C  s         
   235    -19.868925   6 C  s                97    -17.286743   3 C  s         
   189    -17.285289   5 C  s               143     11.845319   4 C  s         
   142    -10.256581   4 C  s                 4     -9.669442   1 C  s         
    50     -7.854398   2 C  s               234     -7.854575   6 C  s         
 
 Vector   85  Occ=0.000000D+00  E= 4.052632D-01
              MO Center= -5.4D-03,  8.5D-02, -5.8D-05, r^2= 1.3D+01
   Bfn.  Coefficient  Atom+Function         Bfn.  Coefficient  Atom+Function  
  ----- ------------  ---------------      ----- ------------  ---------------
     5     34.006766   1 C  s               143     17.498436   4 C  s         
[...]
     Occ.   13 beta  a   ---  Virt.   21 beta  a   -0.05769 X
     Occ.   15 beta  a   ---  Virt.   21 beta  a   -0.10602 X
     Occ.   19 beta  a   ---  Virt.   24 beta  a   -0.22776 X
     Occ.   19 beta  a   ---  Virt.   29 beta  a    0.05174 X
     Occ.   20 beta  a   ---  Virt.   22 beta  a    0.14930 X
  ----------------------------------------------------------------------------
  Root  27         a              0.251953687 a.u.                6.8560 eV 
  <S2> =   1.6622
  ----------------------------------------------------------------------------
     Transition Moments    X  0.00001   Y  0.00000   Z  0.24494
     Transition Moments   XX  0.00005  XY -0.00007  XZ -0.01076
     Transition Moments   YY  0.00013  YZ  0.16951  ZZ  0.00003
     Dipole Oscillator Strength                    0.0100774577
     Electric Quadrupole                           0.0000000025
     Magnetic Dipole                               0.0000000313
     Total Oscillator Strength                     0.0100774915
 
     Occ.   19 alpha a   ---  Virt.   26 alpha a    0.98229 X
     Occ.   19 alpha a   ---  Virt.   35 alpha a   -0.07091 X
     Occ.   19 alpha a   ---  Virt.   36 alpha a   -0.07383 X
     Occ.   20 alpha a   ---  Virt.   25 alpha a    0.11521 X
     Occ.   20 beta  a   ---  Virt.   26 beta  a    0.05028 X
  ----------------------------------------------------------------------------
  Root  28         a              0.252609995 a.u.                6.8739 eV 
  <S2> =   1.8896
  ----------------------------------------------------------------------------
     Transition Moments    X -0.00004   Y -0.00001   Z -0.00004
     Transition Moments   XX -0.00001  XY  0.00001  XZ -0.39492
     Transition Moments   YY -0.00007  YZ -0.02493  ZZ -0.00002
     Dipole Oscillator Strength                    0.0000000005
     Electric Quadrupole                           0.0000000134
     Magnetic Dipole                               0.0000000097
     Total Oscillator Strength                     0.0000000237
 
     Occ.   19 alpha a   ---  Virt.   25 alpha a    0.24685 X
     Occ.   20 alpha a   ---  Virt.   26 alpha a    0.96049 X
     Occ.   20 alpha a   ---  Virt.   35 alpha a   -0.06135 X
     Occ.   20 alpha a   ---  Virt.   36 alpha a   -0.06569 X
     Occ.   19 beta  a   ---  Virt.   26 beta  a   -0.06491 X
  ----------------------------------------------------------------------------
  Root  29         a              0.253982872 a.u.                6.9112 eV 
  <S2> =   1.6183
  ----------------------------------------------------------------------------
     Transition Moments    X  0.00005   Y -0.00002   Z -0.00000
     Transition Moments   XX -0.00003  XY  0.00004  XZ -0.49634
     Transition Moments   YY -0.00010  YZ -0.03128  ZZ -0.00003
     Dipole Oscillator Strength                    0.0000000005
     Electric Quadrupole                           0.0000000216
     Magnetic Dipole                               0.0000000111
     Total Oscillator Strength                     0.0000000332
 
     Occ.   20 alpha a   ---  Virt.   26 alpha a    0.06952 X
     Occ.   19 beta  a   ---  Virt.   26 beta  a    0.98513 X
     Occ.   19 beta  a   ---  Virt.   35 beta  a   -0.05769 X
     Occ.   19 beta  a   ---  Virt.   36 beta  a   -0.07416 X
     Occ.   20 beta  a   ---  Virt.   25 beta  a    0.09681 X
  ----------------------------------------------------------------------------
  Root  30         a              0.254725745 a.u.                6.9314 eV 
  <S2> =   0.7711
  ----------------------------------------------------------------------------
     Transition Moments    X -1.49645   Y -0.09444   Z  0.00003
     Transition Moments   XX -0.02454  XY  0.19264  XZ -0.00004
     Transition Moments   YY  0.02405  YZ  0.00002  ZZ -0.00003
     Dipole Oscillator Strength                    0.3817976239
     Electric Quadrupole                           0.0000000033
     Magnetic Dipole                               0.0000000231
     Total Oscillator Strength                     0.3817976503
 
     Occ.   19 alpha a   ---  Virt.   22 alpha a   -0.37780 X
     Occ.   19 alpha a   ---  Virt.   22 alpha a    0.05283 Y
     Occ.   20 alpha a   ---  Virt.   23 alpha a    0.42416 X
     Occ.   20 alpha a   ---  Virt.   23 alpha a   -0.05083 Y
     Occ.   20 alpha a   ---  Virt.   29 alpha a   -0.13988 X
     Occ.   21 alpha a   ---  Virt.   25 alpha a    0.07773 X
     Occ.   21 alpha a   ---  Virt.   27 alpha a   -0.40193 X
     Occ.   13 beta  a   ---  Virt.   21 beta  a    0.12710 X
     Occ.   15 beta  a   ---  Virt.   21 beta  a    0.26906 X
     Occ.   19 beta  a   ---  Virt.   24 beta  a    0.49576 X
     Occ.   19 beta  a   ---  Virt.   29 beta  a   -0.13817 X
     Occ.   20 beta  a   ---  Virt.   22 beta  a   -0.34629 X
     Occ.   20 beta  a   ---  Virt.   22 beta  a    0.05583 Y
  ----------------------------------------------------------------------------
  Root  31         a              0.255463072 a.u.                6.9515 eV 
  <S2> =   0.8013
  ----------------------------------------------------------------------------
     Transition Moments    X  0.04067   Y -0.64097   Z -0.00000
     Transition Moments   XX -0.64649  XY  0.07850  XZ  0.00002
     Transition Moments   YY -1.88844  YZ -0.00003  ZZ -0.14670
     Dipole Oscillator Strength                    0.0702527714
     Electric Quadrupole                           0.0000000720
     Magnetic Dipole                               0.0000000000
     Total Oscillator Strength                     0.0702528434
 
     Occ.   19 alpha a   ---  Virt.   23 alpha a    0.10662 X
     Occ.   20 alpha a   ---  Virt.   22 alpha a    0.11538 X
     Occ.   21 alpha a   ---  Virt.   26 alpha a    0.18478 X
     Occ.   21 alpha a   ---  Virt.   28 alpha a   -0.90874 X
     Occ.   21 alpha a   ---  Virt.   30 alpha a   -0.13004 X
     Occ.   21 alpha a   ---  Virt.   31 alpha a   -0.16256 X
     Occ.   21 alpha a   ---  Virt.   48 alpha a    0.05690 X
     Occ.   16 beta  a   ---  Virt.   21 beta  a    0.19038 X
     Occ.   19 beta  a   ---  Virt.   22 beta  a    0.11004 X
     Occ.   20 beta  a   ---  Virt.   24 beta  a    0.09745 X
  ----------------------------------------------------------------------------
  Root  32         a              0.260833138 a.u.                7.0976 eV 
  <S2> =   0.8002
  ----------------------------------------------------------------------------
     Transition Moments    X -0.00001   Y  0.00002   Z -0.09564
     Transition Moments   XX  0.00000  XY  0.00000  XZ  0.04439
     Transition Moments   YY  0.00004  YZ -0.70449  ZZ  0.00000
     Dipole Oscillator Strength                    0.0015904285
     Electric Quadrupole                           0.0000000471
     Magnetic Dipole                               0.0000000329
     Total Oscillator Strength                     0.0015905085
 
     Occ.   21 alpha a   ---  Virt.   29 alpha a    0.97951 X
     Occ.   21 alpha a   ---  Virt.   33 alpha a    0.17986 X
  ----------------------------------------------------------------------------
  Root  33         a              0.265351685 a.u.                7.2206 eV 
  <S2> =   1.7806
  ----------------------------------------------------------------------------
     Transition Moments    X  0.00001   Y  0.00001   Z  0.00000
     Transition Moments   XX -0.00006  XY  0.00002  XZ  0.54587
     Transition Moments   YY -0.00003  YZ  0.03439  ZZ -0.00004
     Dipole Oscillator Strength                    0.0000000000
     Electric Quadrupole                           0.0000000298
     Magnetic Dipole                               0.0000000006
     Total Oscillator Strength                     0.0000000303
 
     Occ.   20 beta  a   ---  Virt.   27 beta  a    0.99102 X
     Occ.   20 beta  a   ---  Virt.   38 beta  a   -0.09656 X
  ----------------------------------------------------------------------------
  Root  34         a              0.267179173 a.u.                7.2703 eV 
  <S2> =   0.8226
  ----------------------------------------------------------------------------
     Transition Moments    X  0.07590   Y -1.20406   Z  0.00000
     Transition Moments   XX  0.03490  XY -0.04144  XZ  0.00001
     Transition Moments   YY  0.68994  YZ  0.00005  ZZ  0.04646
     Dipole Oscillator Strength                    0.2592547019
     Electric Quadrupole                           0.0000000144
     Magnetic Dipole                               0.0000000000
     Total Oscillator Strength                     0.2592547163
 
     Occ.   17 alpha a   ---  Virt.   23 alpha a   -0.08717 X
     Occ.   19 alpha a   ---  Virt.   23 alpha a    0.30596 X
     Occ.   19 alpha a   ---  Virt.   29 alpha a    0.16174 X
     Occ.   20 alpha a   ---  Virt.   22 alpha a    0.22310 X
     Occ.   21 alpha a   ---  Virt.   28 alpha a    0.30439 X
     Occ.   21 alpha a   ---  Virt.   30 alpha a   -0.41900 X
     Occ.   21 alpha a   ---  Virt.   31 alpha a    0.08011 X
     Occ.   14 beta  a   ---  Virt.   21 beta  a   -0.08867 X
     Occ.   16 beta  a   ---  Virt.   21 beta  a    0.50336 X
     Occ.   19 beta  a   ---  Virt.   22 beta  a    0.22389 X
     Occ.   20 beta  a   ---  Virt.   24 beta  a    0.30822 X
     Occ.   20 beta  a   ---  Virt.   29 beta  a    0.34702 X
  ----------------------------------------------------------------------------
  Root  35         a              0.270789411 a.u.                7.3686 eV 
  <S2> =   2.7025
  ----------------------------------------------------------------------------
     Transition Moments    X -0.00001   Y -0.00001   Z -0.00963
     Transition Moments   XX  0.00001  XY -0.00001  XZ  0.00983
     Transition Moments   YY  0.00001  YZ -0.15488  ZZ -0.00000
     Dipole Oscillator Strength                    0.0000167418
     Electric Quadrupole                           0.0000000025
     Magnetic Dipole                               0.0000000000
     Total Oscillator Strength                     0.0000167444
 
     Occ.   20 alpha a   ---  Virt.   27 alpha a    0.79902 X
     Occ.   20 alpha a   ---  Virt.   38 alpha a   -0.08816 X
     Occ.   19 beta  a   ---  Virt.   27 beta  a   -0.57414 X
     Occ.   19 beta  a   ---  Virt.   38 beta  a    0.06798 X
     Occ.   20 beta  a   ---  Virt.   28 beta  a   -0.05370 X
     Occ.   20 beta  a   ---  Virt.   30 beta  a   -0.06135 X
  ----------------------------------------------------------------------------
  Root  36         a              0.271121251 a.u.                7.3776 eV 
  <S2> =   2.7409
  ----------------------------------------------------------------------------
     Transition Moments    X -0.04866   Y -0.00306   Z  0.00000
     Transition Moments   XX -0.00363  XY  0.02846  XZ -0.00001
     Transition Moments   YY  0.00363  YZ  0.00004  ZZ -0.00001
     Dipole Oscillator Strength                    0.0004296075
     Electric Quadrupole                           0.0000000001
     Magnetic Dipole                               0.0000000018
     Total Oscillator Strength                     0.0004296094
 
     Occ.   17 alpha a   ---  Virt.   22 alpha a   -0.59812 X
     Occ.   17 alpha a   ---  Virt.   41 alpha a    0.05241 X
     Occ.   19 alpha a   ---  Virt.   32 alpha a    0.08361 X
     Occ.   20 alpha a   ---  Virt.   29 alpha a   -0.16252 X
     Occ.   20 alpha a   ---  Virt.   44 alpha a    0.22753 X
     Occ.   20 alpha a   ---  Virt.   47 alpha a   -0.17398 X
     Occ.   17 beta  a   ---  Virt.   22 beta  a    0.64476 X
     Occ.   17 beta  a   ---  Virt.   41 beta  a   -0.05433 X
     Occ.   19 beta  a   ---  Virt.   29 beta  a    0.10084 X
     Occ.   19 beta  a   ---  Virt.   44 beta  a   -0.20117 X
     Occ.   19 beta  a   ---  Virt.   47 beta  a    0.16665 X
     Occ.   20 beta  a   ---  Virt.   31 beta  a   -0.10152 X
  ----------------------------------------------------------------------------
  Root  37         a              0.271791035 a.u.                7.3958 eV 
  <S2> =   0.8324
  ----------------------------------------------------------------------------
     Transition Moments    X  0.00024   Y -0.00392   Z -0.02499
     Transition Moments   XX  0.00828  XY  0.00084  XZ  0.05514
     Transition Moments   YY -0.00594  YZ -0.87369  ZZ  0.00186
     Dipole Oscillator Strength                    0.0001159856
     Electric Quadrupole                           0.0000000819
     Magnetic Dipole                               0.0000000038
     Total Oscillator Strength                     0.0001160714
 
     Occ.   20 alpha a   ---  Virt.   27 alpha a    0.57065 X
     Occ.   19 beta  a   ---  Virt.   27 beta  a    0.80229 X
     Occ.   19 beta  a   ---  Virt.   38 beta  a   -0.07535 X
     Occ.   20 beta  a   ---  Virt.   28 beta  a   -0.13070 X
  ----------------------------------------------------------------------------
  Root  38         a              0.271792315 a.u.                7.3958 eV 
  <S2> =   1.0669
  ----------------------------------------------------------------------------
     Transition Moments    X  0.03107   Y -0.49303   Z  0.00020
     Transition Moments   XX  1.03912  XY  0.11346  XZ -0.00045
     Transition Moments   YY -0.75444  YZ  0.00703  ZZ  0.23584
     Dipole Oscillator Strength                    0.0442199132
     Electric Quadrupole                           0.0000000877
     Magnetic Dipole                               0.0000000000
     Total Oscillator Strength                     0.0442200009
 
     Occ.   17 alpha a   ---  Virt.   23 alpha a   -0.06076 X
     Occ.   19 alpha a   ---  Virt.   23 alpha a    0.08539 X
     Occ.   21 alpha a   ---  Virt.   30 alpha a    0.79617 X
     Occ.   21 alpha a   ---  Virt.   31 alpha a   -0.20503 X
     Occ.   21 alpha a   ---  Virt.   35 alpha a    0.07368 X
     Occ.   21 alpha a   ---  Virt.   40 alpha a   -0.05669 X
     Occ.   14 beta  a   ---  Virt.   21 beta  a   -0.06146 X
     Occ.   16 beta  a   ---  Virt.   21 beta  a    0.17985 X
     Occ.   19 beta  a   ---  Virt.   22 beta  a    0.05457 X
     Occ.   20 beta  a   ---  Virt.   24 beta  a    0.09023 X
     Occ.   20 beta  a   ---  Virt.   29 beta  a    0.49373 X
  ----------------------------------------------------------------------------
  Root  39         a              0.272251642 a.u.                7.4083 eV 
  <S2> =   1.7262
  ----------------------------------------------------------------------------
     Transition Moments    X -0.00000   Y  0.00000   Z  0.00000
     Transition Moments   XX  0.00007  XY -0.00002  XZ -0.54915
     Transition Moments   YY  0.00000  YZ -0.03471  ZZ  0.00003
     Dipole Oscillator Strength                    0.0000000000
     Electric Quadrupole                           0.0000000325
     Magnetic Dipole                               0.0000000013
     Total Oscillator Strength                     0.0000000338
 
     Occ.   19 alpha a   ---  Virt.   27 alpha a   -0.99035 X
     Occ.   19 alpha a   ---  Virt.   38 alpha a    0.09603 X
  ----------------------------------------------------------------------------
  Root  40         a              0.272488715 a.u.                7.4148 eV 
  <S2> =   1.9606
  ----------------------------------------------------------------------------
     Transition Moments    X  0.00001   Y -0.00003   Z -0.04167
     Transition Moments   XX -0.00004  XY -0.00003  XZ  0.02763
     Transition Moments   YY -0.00005  YZ -0.43967  ZZ -0.00001
     Dipole Oscillator Strength                    0.0003154419
     Electric Quadrupole                           0.0000000209
     Magnetic Dipole                               0.0000000054
     Total Oscillator Strength                     0.0003154682
 
     Occ.   19 alpha a   ---  Virt.   28 alpha a    0.11688 X
     Occ.   20 alpha a   ---  Virt.   27 alpha a   -0.12766 X
     Occ.   17 beta  a   ---  Virt.   21 beta  a    0.05498 X
     Occ.   19 beta  a   ---  Virt.   27 beta  a   -0.07003 X
     Occ.   20 beta  a   ---  Virt.   28 beta  a   -0.96918 X
     Occ.   20 beta  a   ---  Virt.   30 beta  a   -0.05706 X
     Occ.   20 beta  a   ---  Virt.   32 beta  a   -0.07471 X
     Occ.   20 beta  a   ---  Virt.   43 beta  a   -0.08096 X
 
              Target root =      1
          Target symmetry = none
      Ground state energy =   -231.646323405613
        Excitation energy =      0.106165852307
     Excited state energy =   -231.540157553307
 
  stored tddft:energy   -231.540157553307     

 Task  times  cpu:     2945.9s     wall:     3042.2s
 
 
                                NWChem Input Module
                                -------------------
 
 
 Summary of allocated global arrays
-----------------------------------
  No active global arrays



                         GA Statistics for process    0
                         ------------------------------

       create   destroy   get      put      acc     scatter   gather  read&inc
calls: 9601     9601     9.93e+06 4.29e+06 2.50e+06 5660        0      311     
number of processes/call 1.32e+00 1.71e+00 1.93e+00 0.00e+00 0.00e+00
bytes total:             8.65e+10 1.17e+10 9.77e+10 6.26e+04 0.00e+00 2.49e+03
bytes remote:            6.28e+10 1.11e+09 9.32e+10 0.00e+00 0.00e+00 0.00e+00
Max memory consumed for GA by this process: 205086464 bytes
 
MA_summarize_allocated_blocks: starting scan ...
MA_summarize_allocated_blocks: scan completed: 0 heap blocks, 0 stack blocks
MA usage statistics:

	allocation statistics:
					      heap	     stack
					      ----	     -----
	current number of blocks	         0	         0
	maximum number of blocks	        20	        52
	current total bytes		         0	         0
	maximum total bytes		   1166032	  68276376
	maximum total K-bytes		      1167	     68277
	maximum total M-bytes		         2	        69
 
 
                                     CITATION
                                     --------
                Please cite the following reference when publishing
                           results obtained with NWChem:
 
                 M. Valiev, E.J. Bylaska, N. Govind, K. Kowalski,
              T.P. Straatsma, H.J.J. van Dam, D. Wang, J. Nieplocha,
                        E. Apra, T.L. Windus, W.A. de Jong
                 "NWChem: a comprehensive and scalable open-source
                  solution for large scale molecular simulations"
                      Comput. Phys. Commun. 181, 1477 (2010)
                           doi:10.1016/j.cpc.2010.04.018
 
                                      AUTHORS
                                      -------
          E. Apra, E. J. Bylaska, W. A. de Jong, N. Govind, K. Kowalski,
       T. P. Straatsma, M. Valiev, H. J. J. van Dam, D. Wang, T. L. Windus,
        J. Hammond, J. Autschbach, K. Bhaskaran-Nair, J. Brabec, K. Lopata,
    S. A. Fischer, S. Krishnamoorthy, M. Jacquelin, W. Ma, M. Klemm, O. Villa,
      Y. Chen, V. Anisimov, F. Aquino, S. Hirata, M. T. Hackler, V. Konjkov,
            D. Mejia-Rodriguez, T. Risthaus, M. Malagoli, A. Marenich,
   A. Otero-de-la-Roza, J. Mullin, P. Nichols, R. Peverati, J. Pittner, Y. Zhao,
        P.-D. Fan, A. Fonari, M. J. Williamson, R. J. Harrison, J. R. Rehr,
      M. Dupuis, D. Silverstein, D. M. A. Smith, J. Nieplocha, V. Tipparaju,
    M. Krishnan, B. E. Van Kuiken, A. Vazquez-Mayagoitia, L. Jensen, M. Swart,
      Q. Wu, T. Van Voorhis, A. A. Auer, M. Nooijen, L. D. Crosby, E. Brown,
      G. Cisneros, G. I. Fann, H. Fruchtl, J. Garza, K. Hirao, R. A. Kendall,
      J. A. Nichols, K. Tsemekhman, K. Wolinski, J. Anchell, D. E. Bernholdt,
      P. Borowski, T. Clark, D. Clerc, H. Dachsel, M. J. O. Deegan, K. Dyall,
    D. Elwood, E. Glendening, M. Gutowski, A. C. Hess, J. Jaffe, B. G. Johnson,
     J. Ju, R. Kobayashi, R. Kutteh, Z. Lin, R. Littlefield, X. Long, B. Meng,
      T. Nakajima, S. Niu, L. Pollack, M. Rosing, K. Glaesemann, G. Sandrone,
      M. Stave, H. Taylor, G. Thomas, J. H. van Lenthe, A. T. Wong, Z. Zhang.

 Total times  cpu:     2945.9s     wall:     3043.3s
