 argument  1 = /storage/home/j/jbb5516/normalModes/mode1174.89-m.nw
 


============================== echo of input deck ==============================
echo
start

title "None"

geometry
C    -0.08755853    1.38830088    0.00000005
C    -1.26726859    0.69111320   -0.00000002
C    -1.16713436   -0.70487946   -0.00000002
C     0.08250128   -1.31601396    0.00000004
C     1.24672112   -0.55244223   -0.00000001
C     1.17066138    0.84476120    0.00000005
H    -2.23140117    1.18168847   -0.00000010
H    -2.06603751   -1.30806076   -0.00000009
H     0.14708397   -2.39561487   -0.00000000
H     2.21615261   -1.03419046   -0.00000013
H     2.06650704    1.45112357   -0.00000010
symmetry c1
end

basis spherical
 * library "aug-cc-pvtz"
end

dft
 direct
 mult 2
 iterations 500
 xc b3lyp
end

tddft
 nroots 40
 notriplet
 algorithm 1
end
task tddft energy
================================================================================


                                         
                                         
 
 
              Northwest Computational Chemistry Package (NWChem) 6.8
              ------------------------------------------------------
 
 
                    Environmental Molecular Sciences Laboratory
                       Pacific Northwest National Laboratory
                                Richland, WA 99352
 
                              Copyright (c) 1994-2017
                       Pacific Northwest National Laboratory
                            Battelle Memorial Institute
 
             NWChem is an open-source computational chemistry package
                        distributed under the terms of the
                      Educational Community License (ECL) 2.0
             A copy of the license is included with this distribution
                              in the LICENSE.TXT file
 
                                  ACKNOWLEDGMENT
                                  --------------

            This software and its documentation were developed at the
            EMSL at Pacific Northwest National Laboratory, a multiprogram
            national laboratory, operated for the U.S. Department of Energy
            by Battelle under Contract Number DE-AC05-76RL01830. Support
            for this work was provided by the Department of Energy Office
            of Biological and Environmental Research, Office of Basic
            Energy Sciences, and the Office of Advanced Scientific Computing.


           Job information
           ---------------

    hostname        = comp-sc-0086.acib.production.int.aci.ics.psu.edu
    program         = /gpfs/group/lxj18/default/jeffprograms/nwchem-6.8.1/bin/LINUX64/nwchem
    date            = Sun Sep 20 15:31:54 2020

    compiled        = Wed_Oct_03_14:08:39_2018
    source          = /gpfs/group/lxj18/default/jeffprograms/nwchem-6.8.1
    nwchem branch   = 6.8.1
    nwchem revision = v6.8-143-gdb0d964
    ga revision     = 5.6.5
    use scalapack   = F
    input           = /storage/home/j/jbb5516/normalModes/mode1174.89-m.nw
    prefix          = mode1174.89-m.
    data base       = ./mode1174.89-m.db
    status          = startup
    nproc           =       20
    time left       =     -1s



           Memory information
           ------------------

    heap     =   13107198 doubles =    100.0 Mbytes
    stack    =   13107195 doubles =    100.0 Mbytes
    global   =   26214400 doubles =    200.0 Mbytes (distinct from heap & stack)
    total    =   52428793 doubles =    400.0 Mbytes
    verify   = yes
    hardfail = no 


           Directory information
           ---------------------
 
  0 permanent = .
  0 scratch   = .
 
 
 
 
                                NWChem Input Module
                                -------------------
 
 
                                       None
                                       ----

 Scaling coordinates for geometry "geometry" by  1.889725989
 (inverse scale =  0.529177249)

 Turning off AUTOSYM since
 SYMMETRY directive was detected!
 

          ------
          auto-z
          ------
 
 
                             Geometry "geometry" -> ""
                             -------------------------
 
 Output coordinates in angstroms (scale by  1.889725989 to convert to a.u.)
 
  No.       Tag          Charge          X              Y              Z
 ---- ---------------- ---------- -------------- -------------- --------------
    1 C                    6.0000    -0.08755460     1.38830128     0.00000005
    2 C                    6.0000    -1.26726466     0.69111360    -0.00000002
    3 C                    6.0000    -1.16713043    -0.70487906    -0.00000002
    4 C                    6.0000     0.08250521    -1.31601356     0.00000004
    5 C                    6.0000     1.24672505    -0.55244183    -0.00000001
    6 C                    6.0000     1.17066531     0.84476160     0.00000005
    7 H                    1.0000    -2.23139724     1.18168887    -0.00000010
    8 H                    1.0000    -2.06603358    -1.30806036    -0.00000009
    9 H                    1.0000     0.14708790    -2.39561447    -0.00000000
   10 H                    1.0000     2.21615654    -1.03419006    -0.00000013
   11 H                    1.0000     2.06651097     1.45112397    -0.00000010
 
      Atomic Mass 
      ----------- 
 
      C                 12.000000
      H                  1.007825
 

 Effective nuclear repulsion energy (a.u.)     195.0640196955

            Nuclear Dipole moment (a.u.) 
            ----------------------------
        X                 Y               Z
 ---------------- ---------------- ----------------
     0.0000000000    -0.0000000000     0.0000000000
 


                                Z-matrix (autoz)
                                -------- 

 Units are Angstrom for bonds and degrees for angles
 
      Type          Name      I     J     K     L     M      Value
      ----------- --------  ----- ----- ----- ----- ----- ----------
    1 Stretch                  1     2                       1.37032
    2 Stretch                  1     6                       1.37060
    3 Stretch                  2     3                       1.39958
    4 Stretch                  2     7                       1.08177
    5 Stretch                  3     4                       1.39107
    6 Stretch                  3     8                       1.08252
    7 Stretch                  4     5                       1.39228
    8 Stretch                  4     9                       1.08153
    9 Stretch                  5     6                       1.39927
   10 Stretch                  5    10                       1.08253
   11 Stretch                  6    11                       1.08176
   12 Bend                     1     2     3               116.47955
   13 Bend                     1     2     7               122.44951
   14 Bend                     1     6     5               116.47985
   15 Bend                     1     6    11               122.54358
   16 Bend                     2     1     6               126.05376
   17 Bend                     2     3     4               120.16374
   18 Bend                     2     3     8               119.75958
   19 Bend                     3     2     7               121.07094
   20 Bend                     3     4     5               120.67956
   21 Bend                     3     4     9               119.48436
   22 Bend                     4     3     8               120.07668
   23 Bend                     4     5     6               120.14355
   24 Bend                     4     5    10               120.31594
   25 Bend                     5     4     9               119.83609
   26 Bend                     5     6    11               120.97657
   27 Bend                     6     5    10               119.54051
   28 Torsion                  1     2     3     4           0.00000
   29 Torsion                  1     2     3     8        -180.00000
   30 Torsion                  1     6     5     4           0.00000
   31 Torsion                  1     6     5    10         180.00000
   32 Torsion                  2     1     6     5           0.00000
   33 Torsion                  2     1     6    11         180.00000
   34 Torsion                  2     3     4     5           0.00000
   35 Torsion                  2     3     4     9        -180.00000
   36 Torsion                  3     2     1     6           0.00000
   37 Torsion                  3     4     5     6           0.00000
   38 Torsion                  3     4     5    10        -180.00000
   39 Torsion                  4     3     2     7         180.00000
   40 Torsion                  4     5     6    11        -180.00000
   41 Torsion                  5     4     3     8         180.00000
   42 Torsion                  6     1     2     7        -180.00000
   43 Torsion                  6     5     4     9        -180.00000
   44 Torsion                  7     2     3     8           0.00000
   45 Torsion                  8     3     4     9           0.00000
   46 Torsion                  9     4     5    10           0.00000
   47 Torsion                 10     5     6    11           0.00000
 
 
            XYZ format geometry
            -------------------
    11
 geometry
 C                    -0.08755460     1.38830128     0.00000005
 C                    -1.26726466     0.69111360    -0.00000002
 C                    -1.16713043    -0.70487906    -0.00000002
 C                     0.08250521    -1.31601356     0.00000004
 C                     1.24672505    -0.55244183    -0.00000001
 C                     1.17066531     0.84476160     0.00000005
 H                    -2.23139724     1.18168887    -0.00000010
 H                    -2.06603358    -1.30806036    -0.00000009
 H                     0.14708790    -2.39561447    -0.00000000
 H                     2.21615654    -1.03419006    -0.00000013
 H                     2.06651097     1.45112397    -0.00000010
 
 ==============================================================================
                                internuclear distances
 ------------------------------------------------------------------------------
       center one      |      center two      | atomic units |  angstroms
 ------------------------------------------------------------------------------
    2 C                |   1 C                |     2.58954  |     1.37032
    3 C                |   2 C                |     2.64482  |     1.39958
    4 C                |   3 C                |     2.62874  |     1.39107
    5 C                |   4 C                |     2.63103  |     1.39228
    6 C                |   1 C                |     2.59006  |     1.37060
    6 C                |   5 C                |     2.64424  |     1.39927
    7 H                |   2 C                |     2.04424  |     1.08177
    8 H                |   3 C                |     2.04567  |     1.08252
    9 H                |   4 C                |     2.04380  |     1.08153
   10 H                |   5 C                |     2.04569  |     1.08253
   11 H                |   6 C                |     2.04424  |     1.08176
 ------------------------------------------------------------------------------
                         number of included internuclear distances:         11
 ==============================================================================



 ==============================================================================
                                 internuclear angles
 ------------------------------------------------------------------------------
        center 1       |       center 2       |       center 3       |  degrees
 ------------------------------------------------------------------------------
    2 C                |   1 C                |   6 C                |   126.05
    1 C                |   2 C                |   3 C                |   116.48
    1 C                |   2 C                |   7 H                |   122.45
    3 C                |   2 C                |   7 H                |   121.07
    2 C                |   3 C                |   4 C                |   120.16
    2 C                |   3 C                |   8 H                |   119.76
    4 C                |   3 C                |   8 H                |   120.08
    3 C                |   4 C                |   5 C                |   120.68
    3 C                |   4 C                |   9 H                |   119.48
    5 C                |   4 C                |   9 H                |   119.84
    4 C                |   5 C                |   6 C                |   120.14
    4 C                |   5 C                |  10 H                |   120.32
    6 C                |   5 C                |  10 H                |   119.54
    1 C                |   6 C                |   5 C                |   116.48
    1 C                |   6 C                |  11 H                |   122.54
    5 C                |   6 C                |  11 H                |   120.98
 ------------------------------------------------------------------------------
                            number of included internuclear angles:         16
 ==============================================================================





 Summary of "ao basis" -> "" (spherical)
 ------------------------------------------------------------------------------
       Tag                 Description            Shells   Functions and Types
 ---------------- ------------------------------  ------  ---------------------
 *                        aug-cc-pvtz                 on all atoms 


 
                                 NWChem DFT Module
                                 -----------------
 
 
                                       None
 
 
                      Basis "ao basis" -> "ao basis" (spherical)
                      -----
  C (Carbon)
  ----------
            Exponent  Coefficients 
       -------------- ---------------------------------------------------------
  1 S  8.23600000E+03  0.000531
  1 S  1.23500000E+03  0.004108
  1 S  2.80800000E+02  0.021087
  1 S  7.92700000E+01  0.081853
  1 S  2.55900000E+01  0.234817
  1 S  8.99700000E+00  0.434401
  1 S  3.31900000E+00  0.346129
  1 S  3.64300000E-01 -0.008983
 
  2 S  8.23600000E+03 -0.000113
  2 S  1.23500000E+03 -0.000878
  2 S  2.80800000E+02 -0.004540
  2 S  7.92700000E+01 -0.018133
  2 S  2.55900000E+01 -0.055760
  2 S  8.99700000E+00 -0.126895
  2 S  3.31900000E+00 -0.170352
  2 S  3.64300000E-01  0.598684
 
  3 S  9.05900000E-01  1.000000
 
  4 S  1.28500000E-01  1.000000
 
  5 S  4.40200000E-02  1.000000
 
  6 P  1.87100000E+01  0.014031
  6 P  4.13300000E+00  0.086866
  6 P  1.20000000E+00  0.290216
 
  7 P  3.82700000E-01  1.000000
 
  8 P  1.20900000E-01  1.000000
 
  9 P  3.56900000E-02  1.000000
 
 10 D  1.09700000E+00  1.000000
 
 11 D  3.18000000E-01  1.000000
 
 12 D  1.00000000E-01  1.000000
 
 13 F  7.61000000E-01  1.000000
 
 14 F  2.68000000E-01  1.000000
 
  H (Hydrogen)
  ------------
            Exponent  Coefficients 
       -------------- ---------------------------------------------------------
  1 S  3.38700000E+01  0.006068
  1 S  5.09500000E+00  0.045308
  1 S  1.15900000E+00  0.202822
 
  2 S  3.25800000E-01  1.000000
 
  3 S  1.02700000E-01  1.000000
 
  4 S  2.52600000E-02  1.000000
 
  5 P  1.40700000E+00  1.000000
 
  6 P  3.88000000E-01  1.000000
 
  7 P  1.02000000E-01  1.000000
 
  8 D  1.05700000E+00  1.000000
 
  9 D  2.47000000E-01  1.000000
 


 Summary of "ao basis" -> "ao basis" (spherical)
 ------------------------------------------------------------------------------
       Tag                 Description            Shells   Functions and Types
 ---------------- ------------------------------  ------  ---------------------
 C                        aug-cc-pvtz               14       46   5s4p3d2f
 H                        aug-cc-pvtz                9       23   4s3p2d




 Summary of "ao basis" -> "ao basis" (spherical)
 ------------------------------------------------------------------------------
       Tag                 Description            Shells   Functions and Types
 ---------------- ------------------------------  ------  ---------------------
 C                        aug-cc-pvtz               14       46   5s4p3d2f
 H                        aug-cc-pvtz                9       23   4s3p2d


  Caching 1-el integrals 
 
            General Information
            -------------------
          SCF calculation type: DFT
          Wavefunction type:  spin polarized.
          No. of atoms     :    11
          No. of electrons :    41
           Alpha electrons :    21
            Beta electrons :    20
          Charge           :     0
          Spin multiplicity:     2
          Use of symmetry is: off; symmetry adaption is: off
          Maximum number of iterations: 500
          This is a Direct SCF calculation.
          AO basis - number of functions:   391
                     number of shells:   129
          Convergence on energy requested:  1.00D-06
          Convergence on density requested:  1.00D-05
          Convergence on gradient requested:  5.00D-04
 
              XC Information
              --------------
                         B3LYP Method XC Potential
                     Hartree-Fock (Exact) Exchange  0.200          
                        Slater Exchange Functional  0.800 local    
                    Becke 1988 Exchange Functional  0.720 non-local
              Lee-Yang-Parr Correlation Functional  0.810          
                  VWN I RPA Correlation Functional  0.190 local    
 
             Grid Information
             ----------------
          Grid used for XC integration:  medium    
          Radial quadrature: Mura-Knowles        
          Angular quadrature: Lebedev. 
          Tag              B.-S. Rad. Rad. Pts. Rad. Cut. Ang. Pts.
          ---              ---------- --------- --------- ---------
          C                   0.70       49          15.0       434
          H                   0.35       45          17.0       434
          Grid pruning is: on 
          Number of quadrature shells:   519
          Spatial weights used:  Erf1
 
          Convergence Information
          -----------------------
          Convergence aids based upon iterative change in 
          total energy or number of iterations. 
          Levelshifting, if invoked, occurs when the 
          HOMO/LUMO gap drops below (HL_TOL):  1.00D-02
          DIIS, if invoked, will attempt to extrapolate 
          using up to (NFOCK): 10 stored Fock matrices.

                    Damping( 0%)  Levelshifting(0.5)       DIIS
                  --------------- ------------------- ---------------
          dE  on:    start            ASAP                start   
          dE off:    2 iters        500 iters           500 iters 

 
      Screening Tolerance Information
      -------------------------------
          Density screening/tol_rho:  1.00D-10
          AO Gaussian exp screening on grid/accAOfunc:  14
          CD Gaussian exp screening on grid/accCDfunc:  20
          XC Gaussian exp screening on grid/accXCfunc:  20
          Schwarz screening/accCoul:  1.00D-08

 
 WARNING : Found     7 linear dependencies 
 S eigenvalue threshold:     1.00000E-05
 Smallest S eigenvalue :     1.46349E-06
 Largest  S eigenvalue :     7.76523E-06
 

 !! The overlap matrix has   7 vectors deemed linearly dependent with
    eigenvalues:
 1.46D-06 2.24D-06 2.83D-06 3.54D-06 5.27D-06 5.95D-06 7.77D-06
 
 
      Superposition of Atomic Density Guess
      -------------------------------------
 
 Sum of atomic energies:        -228.52307259
 
      Non-variational initial energy
      ------------------------------

 Total energy =    -232.667211
 1-e energy   =    -691.328551
 2-e energy   =     263.597320
 HOMO         =      -0.183328
 LUMO         =      -0.022273
 
   Time after variat. SCF:     10.2
   Time prior to 1st pass:     10.2

 Grid_pts file          = ./mode1174.89-m.gridpts.00
 Record size in doubles =  12289        No. of grid_pts per rec  =   3070
 Max. records in memory =      6        Max. recs in file   = 220588968

 Grid integrated density:      40.999766002697
 Requested integration accuracy:   0.10E-05

           Memory utilization after 1st SCF pass: 
           Heap Space remaining (MW):       12.96            12961278
          Stack Space remaining (MW):       13.10            13103676

   convergence    iter        energy       DeltaE   RMS-Dens  Diis-err    time
 ---------------- ----- ----------------- --------- --------- ---------  ------
 d= 0,ls=0.0,diis     1   -231.5816050164 -4.27D+02  6.19D-02  2.09D-01    21.0
                                                     6.99D-02  1.96D-01
 d= 0,ls=0.0,diis     2   -231.6398287561 -5.82D-02  6.10D-02  1.22D-02    31.7
                                                     6.88D-02  1.25D-02
 d= 0,ls=0.0,diis     3   -231.6446084619 -4.78D-03  1.28D-03  3.44D-03    42.3
                                                     1.39D-03  3.50D-03
 d= 0,ls=0.0,diis     4   -231.6457655553 -1.16D-03  2.04D-04  1.13D-03    53.1
                                                     2.08D-04  1.06D-03
 d= 0,ls=0.0,diis     5   -231.6462841884 -5.19D-04  3.40D-05  4.25D-05    63.8
                                                     3.12D-05  4.85D-05
  Resetting Diis
 d= 0,ls=0.0,diis     6   -231.6463120614 -2.79D-05  1.10D-05  7.94D-06    74.6
                                                     1.06D-05  6.44D-06
 d= 0,ls=0.0,diis     7   -231.6463182942 -6.23D-06  7.36D-06  2.17D-06    85.3
                                                     6.56D-06  2.42D-06
 d= 0,ls=0.0,diis     8   -231.6463193010 -1.01D-06  3.07D-06  5.65D-06    96.1
                                                     2.74D-06  5.01D-06
 d= 0,ls=0.0,diis     9   -231.6463226906 -3.39D-06  3.80D-06  3.84D-07   106.9
                                                     3.36D-06  3.26D-07
 d= 0,ls=0.0,diis    10   -231.6463240132 -1.32D-06  2.10D-06  1.86D-07   117.6
                                                     2.41D-06  2.87D-07
 d= 0,ls=0.0,diis    11   -231.6463244364 -4.23D-07  5.92D-07  1.36D-08   128.4
                                                     5.05D-07  9.57D-09


         Total DFT energy =     -231.646324436424
      One electron energy =     -696.561002403470
           Coulomb energy =      304.259848830485
    Exchange-Corr. energy =      -34.409190558975
 Nuclear repulsion energy =      195.064019695536

 Numeric. integr. density =       40.999984482349

     Total iterative time =    118.2s


 
                    DFT Final Alpha Molecular Orbital Analysis
                    ------------------------------------------
 
 Vector    1  Occ=1.000000D+00  E=-1.020524D+01
              MO Center= -8.8D-02,  1.4D+00,  4.8D-08, r^2= 3.0D-02
   Bfn.  Coefficient  Atom+Function         Bfn.  Coefficient  Atom+Function  
  ----- ------------  ---------------      ----- ------------  ---------------
     1      0.984163   1 C  s                 3      0.058854   1 C  s         
    50     -0.038426   2 C  s               234     -0.038425   6 C  s         
   143      0.037875   4 C  s               279      0.037995   7 H  s         
   371      0.037917  11 H  s                51     -0.030601   2 C  s         
   235     -0.030744   6 C  s                47      0.025290   2 C  s         
 
 Vector    2  Occ=1.000000D+00  E=-1.019191D+01
              MO Center=  1.2D+00, -5.0D-01, -1.3D-08, r^2= 1.2D-01
   Bfn.  Coefficient  Atom+Function         Bfn.  Coefficient  Atom+Function  
  ----- ------------  ---------------      ----- ------------  ---------------
   185      0.965378   5 C  s               231      0.192458   6 C  s         
   142     -0.072774   4 C  s               348      0.058745  10 H  s         
   187      0.057572   5 C  s                50      0.053101   2 C  s         
    93      0.050516   3 C  s               139      0.043403   4 C  s         
   279     -0.043152   7 H  s                51      0.041485   2 C  s         
 
 Vector    3  Occ=1.000000D+00  E=-1.019173D+01
              MO Center= -1.2D+00, -6.4D-01, -2.4D-08, r^2= 1.3D-01
   Bfn.  Coefficient  Atom+Function         Bfn.  Coefficient  Atom+Function  
  ----- ------------  ---------------      ----- ------------  ---------------
    93      0.961196   3 C  s                47      0.212732   2 C  s         
   142     -0.066816   4 C  s               302      0.060499   8 H  s         
    95      0.057376   3 C  s               234      0.056062   6 C  s         
   185     -0.046055   5 C  s               371     -0.045658  11 H  s         
   235      0.044897   6 C  s               139      0.040399   4 C  s         
 
 Vector    4  Occ=1.000000D+00  E=-1.019036D+01
              MO Center=  1.2D+00,  7.9D-01,  4.5D-08, r^2= 1.3D-01
   Bfn.  Coefficient  Atom+Function         Bfn.  Coefficient  Atom+Function  
  ----- ------------  ---------------      ----- ------------  ---------------
   231      0.963840   6 C  s               185     -0.189230   5 C  s         
    47      0.075897   2 C  s               371      0.059513  11 H  s         
   233      0.056202   6 C  s                97      0.037464   3 C  s         
   143      0.033508   4 C  s                96      0.032992   3 C  s         
     4     -0.031789   1 C  s               235     -0.030756   6 C  s         
 
 Vector    5  Occ=1.000000D+00  E=-1.019031D+01
              MO Center= -1.2D+00,  6.3D-01, -2.3D-08, r^2= 1.5D-01
   Bfn.  Coefficient  Atom+Function         Bfn.  Coefficient  Atom+Function  
  ----- ------------  ---------------      ----- ------------  ---------------
    47      0.959416   2 C  s                93     -0.209729   3 C  s         
   231     -0.069116   6 C  s               279      0.058061   7 H  s         
    49      0.055758   2 C  s               189      0.042027   5 C  s         
   188      0.037210   5 C  s                97     -0.034093   3 C  s         
    12      0.032987   1 C  px               96     -0.032255   3 C  s         
 
 Vector    6  Occ=1.000000D+00  E=-1.018432D+01
              MO Center=  8.2D-02, -1.3D+00,  3.9D-08, r^2= 3.5D-02
   Bfn.  Coefficient  Atom+Function         Bfn.  Coefficient  Atom+Function  
  ----- ------------  ---------------      ----- ------------  ---------------
   139      0.984284   4 C  s               141      0.057792   4 C  s         
    96     -0.046291   3 C  s               325      0.046007   9 H  s         
   188     -0.045523   5 C  s               143     -0.043492   4 C  s         
     4      0.040394   1 C  s                93     -0.040408   3 C  s         
   185     -0.039013   5 C  s               151      0.036000   4 C  py        
 
 Vector    7  Occ=1.000000D+00  E=-8.724607D-01
              MO Center= -6.5D-03,  9.9D-02,  5.0D-09, r^2= 2.0D+00
   Bfn.  Coefficient  Atom+Function         Bfn.  Coefficient  Atom+Function  
  ----- ------------  ---------------      ----- ------------  ---------------
     2      0.214059   1 C  s                48      0.202645   2 C  s         
   232      0.202668   6 C  s                94      0.195687   3 C  s         
   186      0.195492   5 C  s               140      0.188230   4 C  s         
    50      0.090922   2 C  s               234      0.089601   6 C  s         
    96      0.088084   3 C  s               188      0.088147   5 C  s         
 
 Vector    8  Occ=1.000000D+00  E=-7.627284D-01
              MO Center= -3.9D-03,  1.0D-01,  1.8D-09, r^2= 2.8D+00
   Bfn.  Coefficient  Atom+Function         Bfn.  Coefficient  Atom+Function  
  ----- ------------  ---------------      ----- ------------  ---------------
   232     -0.252367   6 C  s                48      0.249327   2 C  s         
    94      0.245039   3 C  s               186     -0.242593   5 C  s         
   234     -0.147230   6 C  s                50      0.145216   2 C  s         
   371      0.130518  11 H  s               279     -0.128202   7 H  s         
   150     -0.115486   4 C  px               97      0.110865   3 C  s         
 
 Vector    9  Occ=1.000000D+00  E=-7.537381D-01
              MO Center=  6.5D-03, -1.5D-01, -2.7D-08, r^2= 2.6D+00
   Bfn.  Coefficient  Atom+Function         Bfn.  Coefficient  Atom+Function  
  ----- ------------  ---------------      ----- ------------  ---------------
   140     -0.300899   4 C  s                 2      0.278543   1 C  s         
    48      0.150697   2 C  s               186     -0.150865   5 C  s         
    94     -0.146848   3 C  s               142     -0.147425   4 C  s         
   232      0.145345   6 C  s                96     -0.105253   3 C  s         
   188     -0.104534   5 C  s                 4      0.103031   1 C  s         
 
 Vector   10  Occ=1.000000D+00  E=-6.187481D-01
              MO Center=  2.1D-03,  4.0D-02, -1.0D-08, r^2= 3.6D+00
   Bfn.  Coefficient  Atom+Function         Bfn.  Coefficient  Atom+Function  
  ----- ------------  ---------------      ----- ------------  ---------------
   186      0.209873   5 C  s                94     -0.207233   3 C  s         
    48      0.199893   2 C  s               232     -0.199022   6 C  s         
    50      0.184804   2 C  s               234     -0.181920   6 C  s         
   188      0.147469   5 C  s                96     -0.146490   3 C  s         
     6     -0.127292   1 C  px              144      0.116901   4 C  px        
 
 Vector   11  Occ=1.000000D+00  E=-6.035383D-01
              MO Center=  2.5D-03, -8.7D-02, -3.2D-08, r^2= 3.5D+00
   Bfn.  Coefficient  Atom+Function         Bfn.  Coefficient  Atom+Function  
  ----- ------------  ---------------      ----- ------------  ---------------
   142      0.258301   4 C  s                 2      0.238932   1 C  s         
   140      0.218764   4 C  s                 4      0.198679   1 C  s         
    94     -0.140189   3 C  s               186     -0.136513   5 C  s         
   234     -0.124223   6 C  s                50     -0.121181   2 C  s         
    96     -0.120396   3 C  s               188     -0.118150   5 C  s         
 
 Vector   12  Occ=1.000000D+00  E=-5.277308D-01
              MO Center=  7.0D-03, -1.5D-01, -1.1D-08, r^2= 4.1D+00
   Bfn.  Coefficient  Atom+Function         Bfn.  Coefficient  Atom+Function  
  ----- ------------  ---------------      ----- ------------  ---------------
   148      0.159295   4 C  py              145      0.138863   4 C  py        
   324     -0.126831   9 H  s                55      0.105046   2 C  px        
   240     -0.104324   6 C  py              323     -0.100371   9 H  s         
   237     -0.095646   6 C  py              193     -0.094763   5 C  px        
   278     -0.094622   7 H  s               370     -0.094353  11 H  s         
 
 Vector   13  Occ=1.000000D+00  E=-4.645296D-01
              MO Center= -2.4D-02,  1.0D-01, -1.7D-09, r^2= 2.7D+00
   Bfn.  Coefficient  Atom+Function         Bfn.  Coefficient  Atom+Function  
  ----- ------------  ---------------      ----- ------------  ---------------
     9      0.188692   1 C  px                6      0.175015   1 C  px        
   147      0.171985   4 C  px              144      0.158733   4 C  px        
   194     -0.131468   5 C  py               56     -0.130525   2 C  py        
   239     -0.130943   6 C  px               55     -0.126966   2 C  px        
   102      0.124507   3 C  py              191     -0.118693   5 C  py        
 
 Vector   14  Occ=1.000000D+00  E=-4.631550D-01
              MO Center=  2.9D-02, -1.6D-01, -4.1D-08, r^2= 4.8D+00
   Bfn.  Coefficient  Atom+Function         Bfn.  Coefficient  Atom+Function  
  ----- ------------  ---------------      ----- ------------  ---------------
     2      0.176295   1 C  s               301      0.137790   8 H  s         
   347      0.135178  10 H  s               140     -0.129194   4 C  s         
   101     -0.125268   3 C  px              193      0.121814   5 C  px        
   104     -0.119537   3 C  px              188      0.118901   5 C  s         
   196      0.118046   5 C  px               98     -0.116625   3 C  px        
 
 Vector   15  Occ=1.000000D+00  E=-4.399792D-01
              MO Center= -1.0D-02,  2.1D-01, -2.5D-08, r^2= 4.0D+00
   Bfn.  Coefficient  Atom+Function         Bfn.  Coefficient  Atom+Function  
  ----- ------------  ---------------      ----- ------------  ---------------
   240      0.144119   6 C  py              102      0.138850   3 C  py        
   237      0.133047   6 C  py              278     -0.131657   7 H  s         
   370      0.131293  11 H  s                55      0.129552   2 C  px        
    99      0.129873   3 C  py               56     -0.128507   2 C  py        
   194     -0.127208   5 C  py              191     -0.120119   5 C  py        
 
 Vector   16  Occ=1.000000D+00  E=-3.990554D-01
              MO Center=  4.7D-02, -7.8D-01, -1.0D-08, r^2= 3.3D+00
   Bfn.  Coefficient  Atom+Function         Bfn.  Coefficient  Atom+Function  
  ----- ------------  ---------------      ----- ------------  ---------------
   148      0.233512   4 C  py              145      0.209199   4 C  py        
   324     -0.198589   9 H  s               151      0.172716   4 C  py        
   323     -0.154031   9 H  s                10      0.138615   1 C  py        
    13      0.120963   1 C  py              240      0.115043   6 C  py        
    56      0.109635   2 C  py                7      0.107901   1 C  py        
 
 Vector   17  Occ=1.000000D+00  E=-3.837014D-01
              MO Center= -7.8D-03,  1.2D-01, -5.8D-08, r^2= 2.7D+00
   Bfn.  Coefficient  Atom+Function         Bfn.  Coefficient  Atom+Function  
  ----- ------------  ---------------      ----- ------------  ---------------
    11      0.173446   1 C  pz               57      0.156400   2 C  pz        
   241      0.156403   6 C  pz              103      0.152265   3 C  pz        
   195      0.152187   5 C  pz              149      0.145900   4 C  pz        
     8      0.136821   1 C  pz               54      0.125774   2 C  pz        
   238      0.125778   6 C  pz              100      0.121761   3 C  pz        
 
 Vector   18  Occ=1.000000D+00  E=-3.659866D-01
              MO Center=  7.9D-03, -1.4D-01, -2.8D-08, r^2= 4.1D+00
   Bfn.  Coefficient  Atom+Function         Bfn.  Coefficient  Atom+Function  
  ----- ------------  ---------------      ----- ------------  ---------------
   147     -0.169368   4 C  px              101      0.165398   3 C  px        
   193      0.164885   5 C  px              144     -0.159918   4 C  px        
     9      0.149396   1 C  px               98      0.149628   3 C  px        
   190      0.148986   5 C  px                6      0.141584   1 C  px        
   196      0.135359   5 C  px              104      0.133856   3 C  px        
 
 Vector   19  Occ=1.000000D+00  E=-2.685216D-01
              MO Center= -6.6D-03, -1.5D-02,  7.9D-08, r^2= 3.0D+00
   Bfn.  Coefficient  Atom+Function         Bfn.  Coefficient  Atom+Function  
  ----- ------------  ---------------      ----- ------------  ---------------
    11      0.244540   1 C  pz              149     -0.237839   4 C  pz        
     8      0.192311   1 C  pz              146     -0.190139   4 C  pz        
    14      0.175782   1 C  pz              152     -0.171110   4 C  pz        
   103     -0.142426   3 C  pz              241      0.130274   6 C  pz        
   100     -0.113812   3 C  pz              195     -0.109842   5 C  pz        
 
 Vector   20  Occ=1.000000D+00  E=-2.678636D-01
              MO Center=  4.0D-03,  6.1D-02,  2.8D-07, r^2= 3.1D+00
   Bfn.  Coefficient  Atom+Function         Bfn.  Coefficient  Atom+Function  
  ----- ------------  ---------------      ----- ------------  ---------------
   195     -0.216837   5 C  pz               57      0.212101   2 C  pz        
   103      0.196843   3 C  pz              241     -0.194306   6 C  pz        
   192     -0.172779   5 C  pz               54      0.169814   2 C  pz        
    60      0.156088   2 C  pz              100      0.156805   3 C  pz        
   198     -0.156683   5 C  pz              238     -0.155636   6 C  pz        
 
 Vector   21  Occ=1.000000D+00  E=-2.484177D-01
              MO Center= -8.2D-02,  1.3D+00,  8.5D-08, r^2= 2.3D+00
   Bfn.  Coefficient  Atom+Function         Bfn.  Coefficient  Atom+Function  
  ----- ------------  ---------------      ----- ------------  ---------------
    10      0.385989   1 C  py               13      0.337675   1 C  py        
     5      0.335218   1 C  s                 7      0.299338   1 C  py        
     4      0.279458   1 C  s                 2      0.138355   1 C  s         
   243     -0.136287   6 C  py               59     -0.134059   2 C  py        
   102      0.112310   3 C  py              194      0.112469   5 C  py        
 
 Vector   22  Occ=0.000000D+00  E=-2.601141D-02
              MO Center= -2.6D-03,  6.8D-02, -9.0D-07, r^2= 4.3D+00
   Bfn.  Coefficient  Atom+Function         Bfn.  Coefficient  Atom+Function  
  ----- ------------  ---------------      ----- ------------  ---------------
   201      0.321882   5 C  pz              109     -0.318223   3 C  pz        
    63      0.315870   2 C  pz              247     -0.313341   6 C  pz        
    60      0.227734   2 C  pz              198      0.225062   5 C  pz        
   244     -0.226185   6 C  pz              106     -0.222377   3 C  pz        
    57      0.219603   2 C  pz              195      0.217966   5 C  pz        
 
 Vector   23  Occ=0.000000D+00  E=-1.860807D-02
              MO Center=  2.0D-03, -5.0D-02, -4.1D-06, r^2= 4.3D+00
   Bfn.  Coefficient  Atom+Function         Bfn.  Coefficient  Atom+Function  
  ----- ------------  ---------------      ----- ------------  ---------------
   155      0.439610   4 C  pz               17      0.373566   1 C  pz        
   152      0.273929   4 C  pz               11      0.258942   1 C  pz        
   149      0.250773   4 C  pz               14      0.240472   1 C  pz        
   109     -0.229165   3 C  pz              201     -0.223017   5 C  pz        
     8      0.200616   1 C  pz              247     -0.200907   6 C  pz        
 
 Vector   24  Occ=0.000000D+00  E=-1.011009D-02
              MO Center=  5.9D-02, -9.5D-01, -1.6D-06, r^2= 2.0D+01
   Bfn.  Coefficient  Atom+Function         Bfn.  Coefficient  Atom+Function  
  ----- ------------  ---------------      ----- ------------  ---------------
     5      1.446449   1 C  s               279     -0.976179   7 H  s         
   371     -0.976749  11 H  s               326     -0.741669   9 H  s         
   303     -0.730583   8 H  s               349     -0.730018  10 H  s         
   302     -0.650840   8 H  s               348     -0.649610  10 H  s         
   325     -0.588292   9 H  s                51      0.561614   2 C  s         
 
 Vector   25  Occ=0.000000D+00  E= 4.382960D-03
              MO Center=  3.0D-02, -2.6D-01, -7.0D-06, r^2= 2.7D+01
   Bfn.  Coefficient  Atom+Function         Bfn.  Coefficient  Atom+Function  
  ----- ------------  ---------------      ----- ------------  ---------------
   235     -2.751047   6 C  s                51      2.711979   2 C  s         
    97      2.672615   3 C  s               189     -2.673152   5 C  s         
   303      1.997835   8 H  s               349     -1.995969  10 H  s         
    15      1.867169   1 C  px              153      1.806823   4 C  px        
   372     -1.549215  11 H  s               280      1.530632   7 H  s         
 
 Vector   26  Occ=0.000000D+00  E= 8.728728D-03
              MO Center= -9.7D-03, -7.4D-02,  6.2D-05, r^2= 2.7D+01
   Bfn.  Coefficient  Atom+Function         Bfn.  Coefficient  Atom+Function  
  ----- ------------  ---------------      ----- ------------  ---------------
   143      6.244746   4 C  s                51     -4.025258   2 C  s         
   235     -3.993758   6 C  s               326      2.932057   9 H  s         
     5      2.589319   1 C  s               280     -2.396669   7 H  s         
   372     -2.379793  11 H  s               154      1.946694   4 C  py        
   246      1.938440   6 C  py               62      1.824710   2 C  py        
 
 Vector   27  Occ=0.000000D+00  E= 2.670514D-02
              MO Center= -5.7D-03,  2.4D-01, -1.1D-05, r^2= 3.1D+01
   Bfn.  Coefficient  Atom+Function         Bfn.  Coefficient  Atom+Function  
  ----- ------------  ---------------      ----- ------------  ---------------
   280      3.924770   7 H  s               372     -3.939200  11 H  s         
   235     -3.669326   6 C  s                51      3.648184   2 C  s         
   303     -3.594630   8 H  s               349      3.608246  10 H  s         
    61      2.218602   2 C  px               97     -2.191594   3 C  s         
   189      2.187311   5 C  s               199     -2.041972   5 C  px        
 
 Vector   28  Occ=0.000000D+00  E= 3.221690D-02
              MO Center=  3.2D-02, -6.3D-01, -1.1D-04, r^2= 2.9D+01
   Bfn.  Coefficient  Atom+Function         Bfn.  Coefficient  Atom+Function  
  ----- ------------  ---------------      ----- ------------  ---------------
     5      6.396616   1 C  s               326     -4.998718   9 H  s         
   303      3.737638   8 H  s               349      3.713890  10 H  s         
    97     -2.185472   3 C  s               154     -2.176793   4 C  py        
   189     -2.173665   5 C  s               199     -1.641288   5 C  px        
   245      1.629424   6 C  px               61     -1.584710   2 C  px        
 
 Vector   29  Occ=0.000000D+00  E= 4.329436D-02
              MO Center=  1.4D-02, -2.2D-01,  7.9D-06, r^2= 1.3D+01
   Bfn.  Coefficient  Atom+Function         Bfn.  Coefficient  Atom+Function  
  ----- ------------  ---------------      ----- ------------  ---------------
   155      0.598856   4 C  pz               63      0.576029   2 C  pz        
   247      0.576760   6 C  pz               17     -0.260464   1 C  pz        
    60     -0.154832   2 C  pz              244     -0.154992   6 C  pz        
   289     -0.123535   7 H  pz              381     -0.123492  11 H  pz        
   259      0.119314   6 C  d -1             77      0.109634   2 C  d  1      
 
 Vector   30  Occ=0.000000D+00  E= 5.496339D-02
              MO Center=  6.9D-03, -1.5D-01, -4.1D-05, r^2= 1.5D+01
   Bfn.  Coefficient  Atom+Function         Bfn.  Coefficient  Atom+Function  
  ----- ------------  ---------------      ----- ------------  ---------------
     5     10.709132   1 C  s               143      5.281189   4 C  s         
   235     -4.499573   6 C  s                51     -4.475914   2 C  s         
   303     -2.812639   8 H  s               349     -2.788217  10 H  s         
   326      2.059441   9 H  s               199      2.003262   5 C  px        
    97     -1.968429   3 C  s               189     -1.934705   5 C  s         
 
 Vector   31  Occ=0.000000D+00  E= 6.334965D-02
              MO Center= -4.0D-02,  6.5D-01, -1.1D-04, r^2= 2.8D+01
   Bfn.  Coefficient  Atom+Function         Bfn.  Coefficient  Atom+Function  
  ----- ------------  ---------------      ----- ------------  ---------------
     5     24.377712   1 C  s                51     -9.861265   2 C  s         
   235     -9.846151   6 C  s               143      7.621777   4 C  s         
    97     -6.512328   3 C  s               189     -6.509417   5 C  s         
   326      5.865952   9 H  s               154      4.771716   4 C  py        
   303     -4.681427   8 H  s               349     -4.683684  10 H  s         
 
 Vector   32  Occ=0.000000D+00  E= 6.574645D-02
              MO Center=  4.3D-03, -2.5D-02,  5.3D-04, r^2= 1.8D+01
   Bfn.  Coefficient  Atom+Function         Bfn.  Coefficient  Atom+Function  
  ----- ------------  ---------------      ----- ------------  ---------------
   109      0.979488   3 C  pz              201     -0.973708   5 C  pz        
   247     -0.775171   6 C  pz               63      0.765370   2 C  pz        
   169     -0.676764   4 C  d  1             31     -0.583246   1 C  d  1      
   198     -0.493779   5 C  pz               60      0.489817   2 C  pz        
   106      0.491106   3 C  pz              244     -0.486946   6 C  pz        
 
 Vector   33  Occ=0.000000D+00  E= 6.826268D-02
              MO Center= -1.5D-02,  1.9D-01, -2.8D-04, r^2= 1.8D+01
   Bfn.  Coefficient  Atom+Function         Bfn.  Coefficient  Atom+Function  
  ----- ------------  ---------------      ----- ------------  ---------------
    63      1.028659   2 C  pz              247      1.019944   6 C  pz        
   201     -0.814974   5 C  pz              109     -0.808777   3 C  pz        
   155     -0.750718   4 C  pz               14      0.629467   1 C  pz        
   152     -0.617587   4 C  pz               17      0.458629   1 C  pz        
   213     -0.446783   5 C  d -1            121     -0.408595   3 C  d -1      
 
 Vector   34  Occ=0.000000D+00  E= 7.645839D-02
              MO Center=  1.6D-02, -1.6D-01, -1.2D-04, r^2= 3.4D+01
   Bfn.  Coefficient  Atom+Function         Bfn.  Coefficient  Atom+Function  
  ----- ------------  ---------------      ----- ------------  ---------------
   235    -14.086776   6 C  s                51     13.641877   2 C  s         
    97     12.443613   3 C  s               189    -12.380356   5 C  s         
    15      7.680639   1 C  px              153      7.703737   4 C  px        
   107      4.695339   3 C  px              303      4.707119   8 H  s         
   349     -4.676535  10 H  s               199      4.519399   5 C  px        
 
 Vector   35  Occ=0.000000D+00  E= 7.792049D-02
              MO Center=  2.1D-01, -3.3D+00,  1.3D-04, r^2= 2.1D+01
   Bfn.  Coefficient  Atom+Function         Bfn.  Coefficient  Atom+Function  
  ----- ------------  ---------------      ----- ------------  ---------------
   143     18.267984   4 C  s                51    -13.661482   2 C  s         
   235    -13.220774   6 C  s               326      7.024824   9 H  s         
   246      5.706385   6 C  py               62      5.614453   2 C  py        
   200      5.340201   5 C  py              154      5.267929   4 C  py        
   108      5.082971   3 C  py              279      4.183924   7 H  s         
 
 Vector   36  Occ=0.000000D+00  E= 8.155459D-02
              MO Center= -1.1D-01,  1.4D+00,  8.0D-05, r^2= 2.8D+01
   Bfn.  Coefficient  Atom+Function         Bfn.  Coefficient  Atom+Function  
  ----- ------------  ---------------      ----- ------------  ---------------
   143     20.711291   4 C  s                51     -8.962037   2 C  s         
   235     -8.933221   6 C  s               246      5.288279   6 C  py        
    62      5.140535   2 C  py              325     -4.965428   9 H  s         
   280     -4.558984   7 H  s               372     -4.569684  11 H  s         
   200      4.517817   5 C  py              326      4.500312   9 H  s         
 
 Vector   37  Occ=0.000000D+00  E= 8.317392D-02
              MO Center=  5.7D-02, -7.3D-01, -9.3D-06, r^2= 2.2D+01
   Bfn.  Coefficient  Atom+Function         Bfn.  Coefficient  Atom+Function  
  ----- ------------  ---------------      ----- ------------  ---------------
    97      4.998347   3 C  s               189     -4.875691   5 C  s         
    51     -3.160413   2 C  s               235      3.105409   6 C  s         
   108      2.816925   3 C  py              349     -2.827077  10 H  s         
   303      2.777899   8 H  s               200     -2.656446   5 C  py        
   153      2.600059   4 C  px               96      2.099915   3 C  s         
 
 Vector   38  Occ=0.000000D+00  E= 9.540271D-02
              MO Center= -5.0D-02,  8.8D-01,  9.4D-06, r^2= 3.1D+01
   Bfn.  Coefficient  Atom+Function         Bfn.  Coefficient  Atom+Function  
  ----- ------------  ---------------      ----- ------------  ---------------
   235    -17.744862   6 C  s                51     17.618722   2 C  s         
   280      7.207039   7 H  s               372     -7.226999  11 H  s         
    97     -6.893700   3 C  s               189      6.913595   5 C  s         
   108     -6.436359   3 C  py              303     -6.195223   8 H  s         
   349      6.206043  10 H  s               200      5.946435   5 C  py        
 
 Vector   39  Occ=0.000000D+00  E= 1.018009D-01
              MO Center= -1.1D-02,  1.1D-01, -3.3D-04, r^2= 1.9D+01
   Bfn.  Coefficient  Atom+Function         Bfn.  Coefficient  Atom+Function  
  ----- ------------  ---------------      ----- ------------  ---------------
    51     13.733103   2 C  s               235    -13.737334   6 C  s         
    97     10.885750   3 C  s               189    -10.882726   5 C  s         
    15     10.001330   1 C  px              153      9.716723   4 C  px        
   246     -6.084769   6 C  py              108     -6.021649   3 C  py        
   200      5.991080   5 C  py               62      5.920743   2 C  py        
 
 Vector   40  Occ=0.000000D+00  E= 1.064759D-01
              MO Center= -1.7D-03,  1.3D-01, -5.8D-04, r^2= 2.1D+01
   Bfn.  Coefficient  Atom+Function         Bfn.  Coefficient  Atom+Function  
  ----- ------------  ---------------      ----- ------------  ---------------
   143     18.276546   4 C  s                51     -9.935179   2 C  s         
   235     -9.940561   6 C  s                 5     -9.462315   1 C  s         
   107     -8.745679   3 C  px              199      7.990541   5 C  px        
   245     -7.062651   6 C  px              200      6.727933   5 C  py        
    61      6.469428   2 C  px              108      5.673571   3 C  py        
 
 Vector   41  Occ=0.000000D+00  E= 1.082034D-01
              MO Center= -2.3D-03,  1.6D-01, -9.5D-05, r^2= 2.2D+01
   Bfn.  Coefficient  Atom+Function         Bfn.  Coefficient  Atom+Function  
  ----- ------------  ---------------      ----- ------------  ---------------
    63      3.397837   2 C  pz              201      3.399172   5 C  pz        
   247     -3.385041   6 C  pz              109     -3.326918   3 C  pz        
    60      0.698325   2 C  pz              244     -0.695368   6 C  pz        
   198      0.643720   5 C  pz              106     -0.629839   3 C  pz        
    77     -0.383113   2 C  d  1            215      0.366059   5 C  d  1      
 
 Vector   42  Occ=0.000000D+00  E= 1.089667D-01
              MO Center=  2.1D-02, -4.7D-01,  2.1D-03, r^2= 2.1D+01
   Bfn.  Coefficient  Atom+Function         Bfn.  Coefficient  Atom+Function  
  ----- ------------  ---------------      ----- ------------  ---------------
   155      5.321621   4 C  pz              109     -3.481387   3 C  pz        
   201     -3.404028   5 C  pz               17      2.510523   1 C  pz        
   152      0.983455   4 C  pz              106     -0.610815   3 C  pz        
   198     -0.595803   5 C  pz              167      0.569167   4 C  d -1      
   247     -0.511690   6 C  pz               14      0.504532   1 C  pz        
 
 Vector   43  Occ=0.000000D+00  E= 1.094999D-01
              MO Center=  1.9D-02, -4.5D-01, -1.1D-03, r^2= 2.7D+01
   Bfn.  Coefficient  Atom+Function         Bfn.  Coefficient  Atom+Function  
  ----- ------------  ---------------      ----- ------------  ---------------
   326      7.669996   9 H  s               154      7.058743   4 C  py        
   303     -6.498000   8 H  s               349     -6.452158  10 H  s         
   143     -5.605974   4 C  s               108     -4.457362   3 C  py        
    62     -4.141965   2 C  py              200     -4.159535   5 C  py        
   246     -4.150238   6 C  py                4      3.926165   1 C  s         
 
 Vector   44  Occ=0.000000D+00  E= 1.178176D-01
              MO Center= -4.1D-02,  6.5D-01, -4.2D-04, r^2= 1.4D+01
   Bfn.  Coefficient  Atom+Function         Bfn.  Coefficient  Atom+Function  
  ----- ------------  ---------------      ----- ------------  ---------------
    17      6.880117   1 C  pz               63     -6.022210   2 C  pz        
   247     -6.024347   6 C  pz              109      5.052848   3 C  pz        
   201      5.053675   5 C  pz              155     -4.823739   4 C  pz        
    14      1.235813   1 C  pz               60     -1.020523   2 C  pz        
   244     -1.020648   6 C  pz              106      0.891774   3 C  pz        
 
 Vector   45  Occ=0.000000D+00  E= 1.264085D-01
              MO Center= -1.9D-02,  2.9D-01, -2.4D-05, r^2= 2.5D+01
   Bfn.  Coefficient  Atom+Function         Bfn.  Coefficient  Atom+Function  
  ----- ------------  ---------------      ----- ------------  ---------------
   235     -7.605284   6 C  s                51      7.567343   2 C  s         
   107      7.212388   3 C  px              199      7.119776   5 C  px        
   245     -7.025405   6 C  px               61     -6.939091   2 C  px        
    15      6.443470   1 C  px               97     -6.203869   3 C  s         
   189      6.180109   5 C  s               153     -5.819182   4 C  px        
 
 Vector   46  Occ=0.000000D+00  E= 1.274500D-01
              MO Center= -1.1D-02,  1.9D-01,  1.3D-04, r^2= 2.6D+01
   Bfn.  Coefficient  Atom+Function         Bfn.  Coefficient  Atom+Function  
  ----- ------------  ---------------      ----- ------------  ---------------
   154     -8.031818   4 C  py               16      7.425103   1 C  py        
   108      6.880612   3 C  py               62     -6.577971   2 C  py        
   200      6.579749   5 C  py              246     -6.382284   6 C  py        
   326     -4.051764   9 H  s                 5      3.566545   1 C  s         
   303      3.167289   8 H  s               349      3.162495  10 H  s         
 
 Vector   47  Occ=0.000000D+00  E= 1.609561D-01
              MO Center= -9.6D-03,  1.4D-01,  9.0D-05, r^2= 1.7D+01
   Bfn.  Coefficient  Atom+Function         Bfn.  Coefficient  Atom+Function  
  ----- ------------  ---------------      ----- ------------  ---------------
    17      8.192785   1 C  pz               63     -8.005874   2 C  pz        
   247     -8.002844   6 C  pz              155     -7.856603   4 C  pz        
   109      7.774399   3 C  pz              201      7.768022   5 C  pz        
    60     -1.192454   2 C  pz              106      1.192932   3 C  pz        
   198      1.192754   5 C  pz              244     -1.191492   6 C  pz        
 
 Vector   48  Occ=0.000000D+00  E= 1.660230D-01
              MO Center= -8.8D-02,  1.4D+00,  3.2D-04, r^2= 2.2D+01
   Bfn.  Coefficient  Atom+Function         Bfn.  Coefficient  Atom+Function  
  ----- ------------  ---------------      ----- ------------  ---------------
     5     59.216080   1 C  s                51    -26.023061   2 C  s         
   143     25.963933   4 C  s               235    -25.946647   6 C  s         
    97    -14.500115   3 C  s               189    -14.335344   5 C  s         
   154      7.428832   4 C  py              245      6.809189   6 C  px        
    61     -6.400796   2 C  px              326      6.156862   9 H  s         
 
 Vector   49  Occ=0.000000D+00  E= 1.754229D-01
              MO Center=  2.4D-02, -3.9D-01, -1.7D-04, r^2= 1.1D+01
   Bfn.  Coefficient  Atom+Function         Bfn.  Coefficient  Atom+Function  
  ----- ------------  ---------------      ----- ------------  ---------------
   335      1.104555   9 H  pz              312      1.079239   8 H  pz        
   358      1.079121  10 H  pz              289      0.973251   7 H  pz        
   381      0.972964  11 H  pz               17      0.959369   1 C  pz        
    63     -0.883183   2 C  pz              247     -0.886653   6 C  pz        
   106     -0.841479   3 C  pz              198     -0.844799   5 C  pz        
 
 Vector   50  Occ=0.000000D+00  E= 1.864230D-01
              MO Center=  3.7D-02, -5.5D-01,  9.9D-05, r^2= 1.5D+01
   Bfn.  Coefficient  Atom+Function         Bfn.  Coefficient  Atom+Function  
  ----- ------------  ---------------      ----- ------------  ---------------
     5     15.495912   1 C  s               189     -7.293534   5 C  s         
    97     -7.243591   3 C  s                51     -4.679838   2 C  s         
   325      4.423476   9 H  s               235     -4.269354   6 C  s         
    62     -4.037869   2 C  py              154      3.980473   4 C  py        
   246     -3.830477   6 C  py              302      3.316436   8 H  s         
 
 Vector   51  Occ=0.000000D+00  E= 1.980400D-01
              MO Center= -3.3D-02,  4.7D-01,  3.5D-04, r^2= 2.3D+01
   Bfn.  Coefficient  Atom+Function         Bfn.  Coefficient  Atom+Function  
  ----- ------------  ---------------      ----- ------------  ---------------
    51     44.549239   2 C  s               235    -44.642353   6 C  s         
    97     25.162415   3 C  s               189    -25.249945   5 C  s         
    15     18.498452   1 C  px              153     17.067260   4 C  px        
   348     14.055381  10 H  s               302    -13.966184   8 H  s         
   200      9.227327   5 C  py              108     -8.510060   3 C  py        
 
 Vector   52  Occ=0.000000D+00  E= 1.984420D-01
              MO Center=  5.2D-02, -7.3D-01, -5.1D-04, r^2= 2.3D+01
   Bfn.  Coefficient  Atom+Function         Bfn.  Coefficient  Atom+Function  
  ----- ------------  ---------------      ----- ------------  ---------------
   143     61.321356   4 C  s               235    -34.672632   6 C  s         
    51    -34.396664   2 C  s               325    -16.864981   9 H  s         
    62     14.667436   2 C  py              246     14.507467   6 C  py        
   200     13.816435   5 C  py              108     12.510169   3 C  py        
     5    -11.580200   1 C  s               279     11.172166   7 H  s         
 
 Vector   53  Occ=0.000000D+00  E= 2.154285D-01
              MO Center=  5.6D-02, -1.4D+00, -3.1D-05, r^2= 1.5D+01
   Bfn.  Coefficient  Atom+Function         Bfn.  Coefficient  Atom+Function  
  ----- ------------  ---------------      ----- ------------  ---------------
    97     14.035115   3 C  s               189    -13.671569   5 C  s         
    96      6.634247   3 C  s               188     -6.451860   5 C  s         
   153      6.308927   4 C  px              279     -5.306870   7 H  s         
   371      4.956599  11 H  s               349     -4.775472  10 H  s         
   303      4.696092   8 H  s               246     -4.651346   6 C  py        
 
 Vector   54  Occ=0.000000D+00  E= 2.182792D-01
              MO Center=  4.4D-02, -2.8D-01, -1.5D-04, r^2= 1.5D+01
   Bfn.  Coefficient  Atom+Function         Bfn.  Coefficient  Atom+Function  
  ----- ------------  ---------------      ----- ------------  ---------------
   143     25.708243   4 C  s               235    -18.933752   6 C  s         
    51    -16.536562   2 C  s                 5     15.932887   1 C  s         
    16     -6.392035   1 C  py              325     -6.031029   9 H  s         
    62      5.209293   2 C  py              246      4.302017   6 C  py        
   371      3.935589  11 H  s               200      3.618266   5 C  py        
 
 Vector   55  Occ=0.000000D+00  E= 2.191083D-01
              MO Center=  2.1D-02, -8.7D-02,  1.0D-03, r^2= 1.5D+01
   Bfn.  Coefficient  Atom+Function         Bfn.  Coefficient  Atom+Function  
  ----- ------------  ---------------      ----- ------------  ---------------
    51     20.818539   2 C  s               235    -18.690364   6 C  s         
   108     -8.657694   3 C  py              200      7.875222   5 C  py        
    15      7.484953   1 C  px              302     -6.911778   8 H  s         
   348      6.926595  10 H  s               153      6.274074   4 C  px        
   246     -4.306161   6 C  py               62      3.594328   2 C  py        
 
 Vector   56  Occ=0.000000D+00  E= 2.301211D-01
              MO Center= -1.2D-02,  2.9D-01,  1.9D-03, r^2= 1.8D+01
   Bfn.  Coefficient  Atom+Function         Bfn.  Coefficient  Atom+Function  
  ----- ------------  ---------------      ----- ------------  ---------------
   199      5.011823   5 C  px              107      4.540300   3 C  px        
   153     -3.569745   4 C  px              234      3.304319   6 C  s         
    50     -3.239852   2 C  s               349     -3.198213  10 H  s         
   303      3.115167   8 H  s                15     -2.626303   1 C  px        
   108      2.483133   3 C  py              150      1.944024   4 C  px        
 
 Vector   57  Occ=0.000000D+00  E= 2.311999D-01
              MO Center=  4.6D-03,  1.2D-03, -3.7D-03, r^2= 1.6D+01
   Bfn.  Coefficient  Atom+Function         Bfn.  Coefficient  Atom+Function  
  ----- ------------  ---------------      ----- ------------  ---------------
   106      2.144041   3 C  pz              198     -2.141735   5 C  pz        
    60      2.048926   2 C  pz              244     -2.045267   6 C  pz        
   312     -1.820096   8 H  pz              358      1.816570  10 H  pz        
   381      1.725050  11 H  pz              289     -1.715987   7 H  pz        
   169     -1.379810   4 C  d  1             31     -1.246938   1 C  d  1      
 
 Vector   58  Occ=0.000000D+00  E= 2.354297D-01
              MO Center=  1.2D-02,  2.2D-01,  6.2D-04, r^2= 1.6D+01
   Bfn.  Coefficient  Atom+Function         Bfn.  Coefficient  Atom+Function  
  ----- ------------  ---------------      ----- ------------  ---------------
   143     14.865143   4 C  s               235    -13.144601   6 C  s         
   107     -8.272475   3 C  px               51     -7.701543   2 C  s         
   199      7.544662   5 C  px               61      5.439062   2 C  px        
   245     -5.338130   6 C  px              303     -4.760756   8 H  s         
   200      4.428711   5 C  py                5      4.047902   1 C  s         
 
 Vector   59  Occ=0.000000D+00  E= 2.365161D-01
              MO Center= -5.2D-02,  7.0D-02,  8.3D-04, r^2= 1.7D+01
   Bfn.  Coefficient  Atom+Function         Bfn.  Coefficient  Atom+Function  
  ----- ------------  ---------------      ----- ------------  ---------------
    97    -33.097128   3 C  s               189     32.998315   5 C  s         
    51     32.372871   2 C  s               235    -30.482451   6 C  s         
   188     14.543043   5 C  s                96    -14.124164   3 C  s         
   371    -10.962430  11 H  s               348     10.636539  10 H  s         
   279     10.561089   7 H  s               302    -10.602058   8 H  s         
 
 Vector   60  Occ=0.000000D+00  E= 2.434506D-01
              MO Center= -2.3D-03, -4.3D-02, -4.4D-04, r^2= 1.5D+01
   Bfn.  Coefficient  Atom+Function         Bfn.  Coefficient  Atom+Function  
  ----- ------------  ---------------      ----- ------------  ---------------
   152      3.413900   4 C  pz               14     -3.025699   1 C  pz        
   289      2.174314   7 H  pz              381      2.167523  11 H  pz        
   335     -2.124802   9 H  pz              261      2.003414   6 C  d  1      
    77     -1.985805   2 C  d  1             63     -1.603585   2 C  pz        
   247     -1.592386   6 C  pz              155      1.369839   4 C  pz        
 
 Vector   61  Occ=0.000000D+00  E= 2.594916D-01
              MO Center=  2.8D-02, -6.0D-01,  6.4D-05, r^2= 1.7D+01
   Bfn.  Coefficient  Atom+Function         Bfn.  Coefficient  Atom+Function  
  ----- ------------  ---------------      ----- ------------  ---------------
     5      8.702794   1 C  s               108     -6.683801   3 C  py        
   200     -6.015420   5 C  py              303     -5.198708   8 H  s         
   349     -5.153333  10 H  s               199      5.049947   5 C  px        
   105     -4.801691   3 C  py              143     -4.811987   4 C  s         
   197     -4.774137   5 C  py              154      4.352953   4 C  py        
 
 Vector   62  Occ=0.000000D+00  E= 2.620276D-01
              MO Center=  7.0D-02, -1.1D+00, -5.3D-05, r^2= 1.7D+01
   Bfn.  Coefficient  Atom+Function         Bfn.  Coefficient  Atom+Function  
  ----- ------------  ---------------      ----- ------------  ---------------
     5     18.966171   1 C  s               154     15.386873   4 C  py        
   143     15.154440   4 C  s               235    -14.788777   6 C  s         
    51    -14.340693   2 C  s               326      9.188440   9 H  s         
     4      6.017633   1 C  s               108     -4.847787   3 C  py        
    97     -4.762559   3 C  s               189     -4.559245   5 C  s         
 
 Vector   63  Occ=0.000000D+00  E= 2.676803D-01
              MO Center= -9.1D-03,  4.3D-01,  6.4D-05, r^2= 2.0D+01
   Bfn.  Coefficient  Atom+Function         Bfn.  Coefficient  Atom+Function  
  ----- ------------  ---------------      ----- ------------  ---------------
    51     20.344751   2 C  s               235    -20.038549   6 C  s         
   189     11.980513   5 C  s                97    -11.835255   3 C  s         
    61     11.029884   2 C  px              245     10.249679   6 C  px        
   188      8.781193   5 C  s               371     -8.770498  11 H  s         
    96     -8.726219   3 C  s               279      8.757407   7 H  s         
 
 Vector   64  Occ=0.000000D+00  E= 2.747962D-01
              MO Center=  2.5D-03,  2.4D-02,  6.7D-05, r^2= 1.4D+01
   Bfn.  Coefficient  Atom+Function         Bfn.  Coefficient  Atom+Function  
  ----- ------------  ---------------      ----- ------------  ---------------
   143      8.949148   4 C  s                 5      8.698275   1 C  s         
   154      5.766484   4 C  py              371     -5.674618  11 H  s         
   279     -5.634302   7 H  s               348     -4.675492  10 H  s         
   302     -4.622295   8 H  s               325     -4.357652   9 H  s         
    16     -4.032107   1 C  py              246      3.270989   6 C  py        
 
 Vector   65  Occ=0.000000D+00  E= 2.829821D-01
              MO Center= -2.7D-02,  1.8D-01, -2.0D-05, r^2= 1.6D+01
   Bfn.  Coefficient  Atom+Function         Bfn.  Coefficient  Atom+Function  
  ----- ------------  ---------------      ----- ------------  ---------------
    12      9.528757   1 C  px               97      8.888749   3 C  s         
   189     -8.898427   5 C  s               235      8.069260   6 C  s         
   302      8.104285   8 H  s               348     -8.095650  10 H  s         
    51     -7.974168   2 C  s               199      7.589439   5 C  px        
   107      7.197804   3 C  px              150      6.197411   4 C  px        
 
 Vector   66  Occ=0.000000D+00  E= 2.954376D-01
              MO Center=  1.8D-03,  5.2D-02, -2.3D-05, r^2= 1.6D+01
   Bfn.  Coefficient  Atom+Function         Bfn.  Coefficient  Atom+Function  
  ----- ------------  ---------------      ----- ------------  ---------------
    63      3.199078   2 C  pz              247     -3.203612   6 C  pz        
   109     -3.180923   3 C  pz              201      3.196056   5 C  pz        
   289     -2.277679   7 H  pz              381      2.281248  11 H  pz        
    60      2.255201   2 C  pz              244     -2.258385   6 C  pz        
   312      2.259471   8 H  pz              358     -2.263965  10 H  pz        
 
 Vector   67  Occ=0.000000D+00  E= 2.962863D-01
              MO Center= -5.5D-02,  9.6D-01,  4.1D-04, r^2= 1.4D+01
   Bfn.  Coefficient  Atom+Function         Bfn.  Coefficient  Atom+Function  
  ----- ------------  ---------------      ----- ------------  ---------------
     4     10.427731   1 C  s                59     -5.741618   2 C  py        
   243     -5.636197   6 C  py                5      5.530565   1 C  s         
   105     -5.519469   3 C  py              197     -5.149260   5 C  py        
    16      4.277502   1 C  py              279     -4.202105   7 H  s         
   371     -4.173199  11 H  s                13      3.916515   1 C  py        
 
 Vector   68  Occ=0.000000D+00  E= 3.080420D-01
              MO Center=  8.4D-03, -2.7D-01, -4.6D-04, r^2= 1.5D+01
   Bfn.  Coefficient  Atom+Function         Bfn.  Coefficient  Atom+Function  
  ----- ------------  ---------------      ----- ------------  ---------------
   155      5.178261   4 C  pz               14      4.363394   1 C  pz        
   109     -3.747542   3 C  pz              201     -3.731774   5 C  pz        
   335     -2.710527   9 H  pz               60     -2.050207   2 C  pz        
   244     -2.048853   6 C  pz              152      1.852668   4 C  pz        
    17      1.841512   1 C  pz               29     -1.719297   1 C  d -1      
 
 Vector   69  Occ=0.000000D+00  E= 3.150453D-01
              MO Center=  1.3D-02, -7.3D-02,  1.8D-05, r^2= 9.1D+00
   Bfn.  Coefficient  Atom+Function         Bfn.  Coefficient  Atom+Function  
  ----- ------------  ---------------      ----- ------------  ---------------
   261      1.253436   6 C  d  1             77      1.133392   2 C  d  1      
   169     -1.083792   4 C  d  1             75     -1.026740   2 C  d -1      
   259      0.871106   6 C  d -1            289     -0.723792   7 H  pz        
   381      0.719145  11 H  pz               31      0.636012   1 C  d  1      
   244      0.346805   6 C  pz               60     -0.327031   2 C  pz        
 
 Vector   70  Occ=0.000000D+00  E= 3.284670D-01
              MO Center=  3.1D-02, -6.2D-01,  7.9D-05, r^2= 1.5D+01
   Bfn.  Coefficient  Atom+Function         Bfn.  Coefficient  Atom+Function  
  ----- ------------  ---------------      ----- ------------  ---------------
   142     12.135109   4 C  s                96      8.773283   3 C  s         
   188      8.670807   5 C  s               151     -6.840797   4 C  py        
   325     -5.845660   9 H  s                 4     -5.244063   1 C  s         
   334     -5.008632   9 H  py                5      4.918584   1 C  s         
   348     -4.424481  10 H  s               302     -4.350885   8 H  s         
 
 Vector   71  Occ=0.000000D+00  E= 3.347624D-01
              MO Center= -8.6D-04,  2.5D-02,  1.9D-04, r^2= 7.7D+00
   Bfn.  Coefficient  Atom+Function         Bfn.  Coefficient  Atom+Function  
  ----- ------------  ---------------      ----- ------------  ---------------
   289      2.028178   7 H  pz              381      2.031567  11 H  pz        
   335      1.839016   9 H  pz               14     -1.772971   1 C  pz        
   155     -1.702986   4 C  pz               63     -1.544846   2 C  pz        
   247     -1.544968   6 C  pz               77     -1.506163   2 C  d  1      
   261      1.418864   6 C  d  1            198     -1.288873   5 C  pz        
 
 Vector   72  Occ=0.000000D+00  E= 3.433219D-01
              MO Center=  3.6D-02, -3.9D-01, -4.5D-03, r^2= 1.2D+01
   Bfn.  Coefficient  Atom+Function         Bfn.  Coefficient  Atom+Function  
  ----- ------------  ---------------      ----- ------------  ---------------
   169      3.291129   4 C  d  1             31      2.703233   1 C  d  1      
   358      2.492546  10 H  pz              312     -2.469779   8 H  pz        
   215      2.183616   5 C  d  1            123      2.144442   3 C  d  1      
   198      1.821345   5 C  pz              106     -1.774562   3 C  pz        
   381      1.441676  11 H  pz              289     -1.412948   7 H  pz        
 
 Vector   73  Occ=0.000000D+00  E= 3.449272D-01
              MO Center= -3.9D-02,  5.6D-01, -2.1D-03, r^2= 1.2D+01
   Bfn.  Coefficient  Atom+Function         Bfn.  Coefficient  Atom+Function  
  ----- ------------  ---------------      ----- ------------  ---------------
   143     23.706478   4 C  s               325    -13.018695   9 H  s         
   279     11.947869   7 H  s               371     11.864163  11 H  s         
    51    -11.776215   2 C  s               235    -11.754128   6 C  s         
     5     -7.685846   1 C  s               197     -6.914625   5 C  py        
   105     -6.775454   3 C  py              243     -6.028656   6 C  py        
 
 Vector   74  Occ=0.000000D+00  E= 3.478241D-01
              MO Center=  1.4D-02, -1.5D-01,  4.1D-03, r^2= 1.2D+01
   Bfn.  Coefficient  Atom+Function         Bfn.  Coefficient  Atom+Function  
  ----- ------------  ---------------      ----- ------------  ---------------
    51     21.308007   2 C  s               235    -21.027608   6 C  s         
   302    -11.998852   8 H  s               348     11.962749  10 H  s         
    97     11.019496   3 C  s               189    -10.889961   5 C  s         
   371      9.842895  11 H  s               279     -9.675722   7 H  s         
    12     -8.083269   1 C  px              150     -7.043882   4 C  px        
 
 Vector   75  Occ=0.000000D+00  E= 3.481632D-01
              MO Center=  2.5D-02, -5.2D-01,  3.1D-03, r^2= 1.3D+01
   Bfn.  Coefficient  Atom+Function         Bfn.  Coefficient  Atom+Function  
  ----- ------------  ---------------      ----- ------------  ---------------
   155     -3.972417   4 C  pz               17      3.782622   1 C  pz        
   109      3.566302   3 C  pz              201      3.559114   5 C  pz        
    63     -3.451791   2 C  pz              247     -3.453360   6 C  pz        
   152     -3.000710   4 C  pz              213     -2.291864   5 C  d -1      
   289      2.292624   7 H  pz              381      2.240691  11 H  pz        
 
 Vector   76  Occ=0.000000D+00  E= 3.527413D-01
              MO Center=  1.8D-02, -5.3D-01, -1.9D-04, r^2= 1.4D+01
   Bfn.  Coefficient  Atom+Function         Bfn.  Coefficient  Atom+Function  
  ----- ------------  ---------------      ----- ------------  ---------------
    17      6.393328   1 C  pz               63     -5.858138   2 C  pz        
   247     -5.865300   6 C  pz              109      5.123622   3 C  pz        
   201      5.132518   5 C  pz              155     -4.855301   4 C  pz        
   335      3.962045   9 H  pz               14      3.795198   1 C  pz        
   167      3.078748   4 C  d -1            244     -2.696291   6 C  pz        
 
 Vector   77  Occ=0.000000D+00  E= 3.546406D-01
              MO Center= -7.5D-03,  3.2D-01, -6.8D-04, r^2= 1.5D+01
   Bfn.  Coefficient  Atom+Function         Bfn.  Coefficient  Atom+Function  
  ----- ------------  ---------------      ----- ------------  ---------------
     5     31.354707   1 C  s               235    -16.107970   6 C  s         
   143     15.884980   4 C  s                51    -15.375686   2 C  s         
   151    -11.082349   4 C  py              196     -7.653466   5 C  px        
   234      7.439269   6 C  s                50      7.327910   2 C  s         
    13      7.265400   1 C  py              104      7.109161   3 C  px        
 
 Vector   78  Occ=0.000000D+00  E= 3.599098D-01
              MO Center= -4.2D-02,  7.5D-01,  2.3D-04, r^2= 1.3D+01
   Bfn.  Coefficient  Atom+Function         Bfn.  Coefficient  Atom+Function  
  ----- ------------  ---------------      ----- ------------  ---------------
   289      3.404614   7 H  pz              381     -3.408409  11 H  pz        
    60      3.192110   2 C  pz              244     -3.123884   6 C  pz        
    77     -3.097111   2 C  d  1            121     -3.099645   3 C  d -1      
   259      3.016911   6 C  d -1            213      2.777059   5 C  d -1      
   106     -2.762028   3 C  pz              358      2.773194  10 H  pz        
 
 Vector   79  Occ=0.000000D+00  E= 3.685612D-01
              MO Center=  2.5D-03, -5.8D-01, -1.4D-04, r^2= 1.3D+01
   Bfn.  Coefficient  Atom+Function         Bfn.  Coefficient  Atom+Function  
  ----- ------------  ---------------      ----- ------------  ---------------
    96     10.834680   3 C  s               188     10.609851   5 C  s         
   104     -8.631404   3 C  px              196      8.342067   5 C  px        
   142     -7.538322   4 C  s                 5      7.242315   1 C  s         
   120     -5.333448   3 C  d -2            212      5.269028   5 C  d -2      
   258      5.247973   6 C  d -2            242     -5.076932   6 C  px        
 
 Vector   80  Occ=0.000000D+00  E= 3.720923D-01
              MO Center=  6.3D-02, -3.1D-01, -2.1D-04, r^2= 1.3D+01
   Bfn.  Coefficient  Atom+Function         Bfn.  Coefficient  Atom+Function  
  ----- ------------  ---------------      ----- ------------  ---------------
    97      9.899674   3 C  s               189     -9.758647   5 C  s         
    50      9.095656   2 C  s               234     -8.957642   6 C  s         
   371      5.660879  11 H  s               357      5.364092  10 H  py        
   279     -5.295982   7 H  s                51     -5.050627   2 C  s         
   212     -5.010993   5 C  d -2            311     -5.000476   8 H  py        
 
 Vector   81  Occ=0.000000D+00  E= 3.819099D-01
              MO Center=  3.5D-02, -5.7D-01, -1.6D-06, r^2= 1.6D+01
   Bfn.  Coefficient  Atom+Function         Bfn.  Coefficient  Atom+Function  
  ----- ------------  ---------------      ----- ------------  ---------------
   166      9.079880   4 C  d -2            333      7.118122   9 H  px        
   150     -6.665689   4 C  px              216     -6.567435   5 C  d  2      
   124      6.084383   3 C  d  2            371     -5.991761  11 H  s         
   279      5.740700   7 H  s               310      5.080700   8 H  px        
   356      5.027781  10 H  px              188      4.899736   5 C  s         
 
 Vector   82  Occ=0.000000D+00  E= 3.932753D-01
              MO Center= -5.0D-02,  4.6D-01,  2.1D-04, r^2= 1.5D+01
   Bfn.  Coefficient  Atom+Function         Bfn.  Coefficient  Atom+Function  
  ----- ------------  ---------------      ----- ------------  ---------------
    12     12.189705   1 C  px              235     11.243909   6 C  s         
    51    -10.871559   2 C  s                78     -9.152724   2 C  d  2      
   262      8.692145   6 C  d  2             15     -6.831664   1 C  px        
   216      6.650079   5 C  d  2            124     -5.873739   3 C  d  2      
   153     -5.860310   4 C  px              150      5.767110   4 C  px        
 
 Vector   83  Occ=0.000000D+00  E= 3.960208D-01
              MO Center= -5.3D-02,  8.3D-01,  1.7D-04, r^2= 1.2D+01
   Bfn.  Coefficient  Atom+Function         Bfn.  Coefficient  Atom+Function  
  ----- ------------  ---------------      ----- ------------  ---------------
   152     -7.531994   4 C  pz              106      7.328956   3 C  pz        
   198      7.345284   5 C  pz               60     -6.477948   2 C  pz        
   244     -6.483428   6 C  pz              167     -6.336116   4 C  d -1      
   215      5.128649   5 C  d  1            123     -4.700059   3 C  d  1      
    14      4.574102   1 C  pz              259      4.019336   6 C  d -1      
 
 Vector   84  Occ=0.000000D+00  E= 4.017297D-01
              MO Center= -4.2D-02,  5.2D-01, -7.0D-04, r^2= 1.5D+01
   Bfn.  Coefficient  Atom+Function         Bfn.  Coefficient  Atom+Function  
  ----- ------------  ---------------      ----- ------------  ---------------
     5     51.728671   1 C  s                51    -20.441097   2 C  s         
   235    -19.108028   6 C  s                97    -17.577648   3 C  s         
   189    -17.188665   5 C  s               143     11.661526   4 C  s         
   142    -10.274395   4 C  s                 4     -9.674387   1 C  s         
   234     -8.317515   6 C  s               325      7.865862   9 H  s         
 
 Vector   85  Occ=0.000000D+00  E= 4.053114D-01
              MO Center= -2.7D-02,  8.5D-02, -7.2D-05, r^2= 1.3D+01
   Bfn.  Coefficient  Atom+Function         Bfn.  Coefficient  Atom+Function  
  ----- ------------  ---------------      ----- ------------  ---------------
[...]
     Occ.   15 beta  a   ---  Virt.   21 beta  a   -0.10229 X
     Occ.   19 beta  a   ---  Virt.   24 beta  a   -0.22074 X
     Occ.   20 beta  a   ---  Virt.   22 beta  a    0.14448 X
  ----------------------------------------------------------------------------
  Root  27         a              0.251971465 a.u.                6.8565 eV 
  <S2> =   1.6631
  ----------------------------------------------------------------------------
     Transition Moments    X  0.00001   Y  0.00000   Z  0.24423
     Transition Moments   XX  0.00005  XY -0.00006  XZ -0.04784
     Transition Moments   YY  0.00012  YZ  0.16423  ZZ  0.00003
     Dipole Oscillator Strength                    0.0100194008
     Electric Quadrupole                           0.0000000025
     Magnetic Dipole                               0.0000000310
     Total Oscillator Strength                     0.0100194342
 
     Occ.   19 alpha a   ---  Virt.   26 alpha a    0.96855 X
     Occ.   19 alpha a   ---  Virt.   35 alpha a   -0.07018 X
     Occ.   19 alpha a   ---  Virt.   36 alpha a   -0.07265 X
     Occ.   20 alpha a   ---  Virt.   25 alpha a    0.11552 X
     Occ.   20 alpha a   ---  Virt.   26 alpha a    0.16291 X
     Occ.   20 beta  a   ---  Virt.   26 beta  a    0.05026 X
  ----------------------------------------------------------------------------
  Root  28         a              0.252623722 a.u.                6.8742 eV 
  <S2> =   1.8883
  ----------------------------------------------------------------------------
     Transition Moments    X -0.00004   Y -0.00001   Z -0.02018
     Transition Moments   XX -0.00001  XY  0.00002  XZ -0.39031
     Transition Moments   YY -0.00008  YZ -0.03920  ZZ -0.00003
     Dipole Oscillator Strength                    0.0000685578
     Electric Quadrupole                           0.0000000132
     Magnetic Dipole                               0.0000000097
     Total Oscillator Strength                     0.0000685807
 
     Occ.   19 alpha a   ---  Virt.   25 alpha a    0.24692 X
     Occ.   19 alpha a   ---  Virt.   26 alpha a   -0.16308 X
     Occ.   20 alpha a   ---  Virt.   26 alpha a    0.94647 X
     Occ.   20 alpha a   ---  Virt.   35 alpha a   -0.06057 X
     Occ.   20 alpha a   ---  Virt.   36 alpha a   -0.06447 X
     Occ.   19 beta  a   ---  Virt.   26 beta  a   -0.06483 X
  ----------------------------------------------------------------------------
  Root  29         a              0.253984786 a.u.                6.9113 eV 
  <S2> =   1.6183
  ----------------------------------------------------------------------------
     Transition Moments    X -0.00005   Y  0.00002   Z  0.00095
     Transition Moments   XX  0.00003  XY -0.00005  XZ  0.49377
     Transition Moments   YY  0.00011  YZ  0.03110  ZZ  0.00003
     Dipole Oscillator Strength                    0.0000001538
     Electric Quadrupole                           0.0000000214
     Magnetic Dipole                               0.0000000109
     Total Oscillator Strength                     0.0000001860
 
     Occ.   20 alpha a   ---  Virt.   26 alpha a   -0.06908 X
     Occ.   19 beta  a   ---  Virt.   26 beta  a   -0.98515 X
     Occ.   19 beta  a   ---  Virt.   35 beta  a    0.05784 X
     Occ.   19 beta  a   ---  Virt.   36 beta  a    0.07395 X
     Occ.   20 beta  a   ---  Virt.   25 beta  a   -0.09691 X
  ----------------------------------------------------------------------------
  Root  30         a              0.254758501 a.u.                6.9323 eV 
  <S2> =   0.7707
  ----------------------------------------------------------------------------
     Transition Moments    X -1.50332   Y -0.09814   Z  0.00003
     Transition Moments   XX -0.02521  XY  0.19014  XZ -0.00003
     Transition Moments   YY  0.01337  YZ  0.00002  ZZ -0.00081
     Dipole Oscillator Strength                    0.3854668639
     Electric Quadrupole                           0.0000000032
     Magnetic Dipole                               0.0000000194
     Total Oscillator Strength                     0.3854668865
 
     Occ.   19 alpha a   ---  Virt.   22 alpha a   -0.37884 X
     Occ.   19 alpha a   ---  Virt.   22 alpha a    0.05293 Y
     Occ.   20 alpha a   ---  Virt.   23 alpha a    0.42530 X
     Occ.   20 alpha a   ---  Virt.   23 alpha a   -0.05091 Y
     Occ.   20 alpha a   ---  Virt.   29 alpha a   -0.14047 X
     Occ.   21 alpha a   ---  Virt.   25 alpha a    0.07639 X
     Occ.   21 alpha a   ---  Virt.   27 alpha a   -0.38934 X
     Occ.   13 beta  a   ---  Virt.   21 beta  a    0.12789 X
     Occ.   15 beta  a   ---  Virt.   21 beta  a    0.27040 X
     Occ.   19 beta  a   ---  Virt.   24 beta  a    0.49869 X
     Occ.   19 beta  a   ---  Virt.   29 beta  a   -0.13919 X
     Occ.   20 beta  a   ---  Virt.   22 beta  a   -0.34840 X
     Occ.   20 beta  a   ---  Virt.   22 beta  a    0.05612 Y
  ----------------------------------------------------------------------------
  Root  31         a              0.255406817 a.u.                6.9500 eV 
  <S2> =   0.8012
  ----------------------------------------------------------------------------
     Transition Moments    X  0.04391   Y -0.63593   Z -0.00000
     Transition Moments   XX -0.64968  XY  0.07538  XZ  0.00002
     Transition Moments   YY -1.88625  YZ -0.00003  ZZ -0.14659
     Dipole Oscillator Strength                    0.0691876906
     Electric Quadrupole                           0.0000000716
     Magnetic Dipole                               0.0000000000
     Total Oscillator Strength                     0.0691877622
 
     Occ.   19 alpha a   ---  Virt.   23 alpha a    0.10515 X
     Occ.   20 alpha a   ---  Virt.   22 alpha a    0.11421 X
     Occ.   21 alpha a   ---  Virt.   26 alpha a    0.18451 X
     Occ.   21 alpha a   ---  Virt.   28 alpha a   -0.90988 X
     Occ.   21 alpha a   ---  Virt.   30 alpha a   -0.12839 X
     Occ.   21 alpha a   ---  Virt.   31 alpha a   -0.16283 X
     Occ.   21 alpha a   ---  Virt.   48 alpha a    0.05656 X
     Occ.   16 beta  a   ---  Virt.   21 beta  a    0.18859 X
     Occ.   19 beta  a   ---  Virt.   22 beta  a    0.10924 X
     Occ.   20 beta  a   ---  Virt.   24 beta  a    0.09633 X
  ----------------------------------------------------------------------------
  Root  32         a              0.260752302 a.u.                7.0954 eV 
  <S2> =   0.8001
  ----------------------------------------------------------------------------
     Transition Moments    X -0.00001   Y  0.00002   Z -0.09560
     Transition Moments   XX  0.00000  XY  0.00000  XZ  0.04521
     Transition Moments   YY  0.00004  YZ -0.70489  ZZ  0.00000
     Dipole Oscillator Strength                    0.0015887077
     Electric Quadrupole                           0.0000000471
     Magnetic Dipole                               0.0000000330
     Total Oscillator Strength                     0.0015887878
 
     Occ.   21 alpha a   ---  Virt.   29 alpha a    0.97947 X
     Occ.   21 alpha a   ---  Virt.   33 alpha a    0.17997 X
  ----------------------------------------------------------------------------
  Root  33         a              0.265402804 a.u.                7.2220 eV 
  <S2> =   1.7807
  ----------------------------------------------------------------------------
     Transition Moments    X  0.00001   Y  0.00001   Z  0.00054
     Transition Moments   XX -0.00006  XY  0.00002  XZ  0.54625
     Transition Moments   YY -0.00003  YZ  0.02708  ZZ -0.00004
     Dipole Oscillator Strength                    0.0000000523
     Electric Quadrupole                           0.0000000298
     Magnetic Dipole                               0.0000000006
     Total Oscillator Strength                     0.0000000826
 
     Occ.   20 beta  a   ---  Virt.   27 beta  a    0.99103 X
     Occ.   20 beta  a   ---  Virt.   38 beta  a   -0.09650 X
  ----------------------------------------------------------------------------
  Root  34         a              0.267191823 a.u.                7.2707 eV 
  <S2> =   0.8216
  ----------------------------------------------------------------------------
     Transition Moments    X -0.07544   Y  1.20051   Z -0.00000
     Transition Moments   XX -0.01817  XY  0.04176  XZ -0.00001
     Transition Moments   YY -0.69519  YZ -0.00005  ZZ -0.04583
     Dipole Oscillator Strength                    0.2577343001
     Electric Quadrupole                           0.0000000151
     Magnetic Dipole                               0.0000000000
     Total Oscillator Strength                     0.2577343152
 
     Occ.   17 alpha a   ---  Virt.   23 alpha a    0.08603 X
     Occ.   19 alpha a   ---  Virt.   23 alpha a   -0.30400 X
     Occ.   19 alpha a   ---  Virt.   29 alpha a   -0.16103 X
     Occ.   20 alpha a   ---  Virt.   22 alpha a   -0.22187 X
     Occ.   21 alpha a   ---  Virt.   28 alpha a   -0.30107 X
     Occ.   21 alpha a   ---  Virt.   30 alpha a    0.42809 X
     Occ.   21 alpha a   ---  Virt.   31 alpha a   -0.08032 X
     Occ.   14 beta  a   ---  Virt.   21 beta  a    0.08782 X
     Occ.   16 beta  a   ---  Virt.   21 beta  a   -0.50151 X
     Occ.   19 beta  a   ---  Virt.   22 beta  a   -0.22341 X
     Occ.   20 beta  a   ---  Virt.   24 beta  a   -0.30736 X
     Occ.   20 beta  a   ---  Virt.   29 beta  a   -0.34411 X
  ----------------------------------------------------------------------------
  Root  35         a              0.270804638 a.u.                7.3690 eV 
  <S2> =   2.7031
  ----------------------------------------------------------------------------
     Transition Moments    X  0.00000   Y  0.00001   Z  0.00954
     Transition Moments   XX -0.00001  XY  0.00001  XZ -0.02797
     Transition Moments   YY -0.00001  YZ  0.15121  ZZ  0.00001
     Dipole Oscillator Strength                    0.0000164217
     Electric Quadrupole                           0.0000000025
     Magnetic Dipole                               0.0000000000
     Total Oscillator Strength                     0.0000164242
 
     Occ.   20 alpha a   ---  Virt.   27 alpha a   -0.79683 X
     Occ.   20 alpha a   ---  Virt.   38 alpha a    0.08790 X
     Occ.   19 beta  a   ---  Virt.   27 beta  a    0.57607 X
     Occ.   19 beta  a   ---  Virt.   38 beta  a   -0.06814 X
     Occ.   20 beta  a   ---  Virt.   28 beta  a    0.05353 X
     Occ.   20 beta  a   ---  Virt.   30 beta  a    0.06105 X
  ----------------------------------------------------------------------------
  Root  36         a              0.271249962 a.u.                7.3811 eV 
  <S2> =   2.7408
  ----------------------------------------------------------------------------
     Transition Moments    X  0.04884   Y  0.00035   Z -0.00000
     Transition Moments   XX  0.01017  XY -0.02786  XZ  0.00001
     Transition Moments   YY -0.00812  YZ -0.00004  ZZ  0.00162
     Dipole Oscillator Strength                    0.0004314388
     Electric Quadrupole                           0.0000000001
     Magnetic Dipole                               0.0000000018
     Total Oscillator Strength                     0.0004314408
 
     Occ.   17 alpha a   ---  Virt.   22 alpha a    0.59782 X
     Occ.   17 alpha a   ---  Virt.   41 alpha a   -0.05240 X
     Occ.   19 alpha a   ---  Virt.   32 alpha a   -0.08353 X
     Occ.   20 alpha a   ---  Virt.   29 alpha a    0.16393 X
     Occ.   20 alpha a   ---  Virt.   44 alpha a   -0.22673 X
     Occ.   20 alpha a   ---  Virt.   47 alpha a    0.17365 X
     Occ.   17 beta  a   ---  Virt.   22 beta  a   -0.64457 X
     Occ.   17 beta  a   ---  Virt.   41 beta  a    0.05433 X
     Occ.   19 beta  a   ---  Virt.   29 beta  a   -0.10211 X
     Occ.   19 beta  a   ---  Virt.   44 beta  a    0.20059 X
     Occ.   19 beta  a   ---  Virt.   47 beta  a   -0.16659 X
     Occ.   20 beta  a   ---  Virt.   31 beta  a    0.10175 X
  ----------------------------------------------------------------------------
  Root  37         a              0.271756418 a.u.                7.3949 eV 
  <S2> =   1.0516
  ----------------------------------------------------------------------------
     Transition Moments    X  0.03278   Y -0.51300   Z -0.00000
     Transition Moments   XX  1.05219  XY  0.11512  XZ  0.00001
     Transition Moments   YY -0.75507  YZ -0.00010  ZZ  0.23979
     Dipole Oscillator Strength                    0.0478726868
     Electric Quadrupole                           0.0000000890
     Magnetic Dipole                               0.0000000000
     Total Oscillator Strength                     0.0478727758
 
     Occ.   17 alpha a   ---  Virt.   23 alpha a   -0.06256 X
     Occ.   19 alpha a   ---  Virt.   23 alpha a    0.09099 X
     Occ.   21 alpha a   ---  Virt.   30 alpha a    0.79727 X
     Occ.   21 alpha a   ---  Virt.   31 alpha a   -0.20546 X
     Occ.   21 alpha a   ---  Virt.   35 alpha a    0.07441 X
     Occ.   21 alpha a   ---  Virt.   40 alpha a   -0.05669 X
     Occ.   14 beta  a   ---  Virt.   21 beta  a   -0.06319 X
     Occ.   16 beta  a   ---  Virt.   21 beta  a    0.18886 X
     Occ.   19 beta  a   ---  Virt.   22 beta  a    0.05859 X
     Occ.   20 beta  a   ---  Virt.   24 beta  a    0.09609 X
     Occ.   20 beta  a   ---  Virt.   29 beta  a    0.48468 X
  ----------------------------------------------------------------------------
  Root  38         a              0.271802696 a.u.                7.3961 eV 
  <S2> =   0.8349
  ----------------------------------------------------------------------------
     Transition Moments    X  0.00002   Y -0.00010   Z  0.02470
     Transition Moments   XX  0.00021  XY  0.00008  XZ -0.09038
     Transition Moments   YY -0.00021  YZ  0.86762  ZZ  0.00006
     Dipole Oscillator Strength                    0.0001105467
     Electric Quadrupole                           0.0000000814
     Magnetic Dipole                               0.0000000038
     Total Oscillator Strength                     0.0001106319
 
     Occ.   20 alpha a   ---  Virt.   27 alpha a   -0.57398 X
     Occ.   19 beta  a   ---  Virt.   27 beta  a   -0.80044 X
     Occ.   19 beta  a   ---  Virt.   38 beta  a    0.07513 X
     Occ.   20 beta  a   ---  Virt.   28 beta  a    0.12630 X
  ----------------------------------------------------------------------------
  Root  39         a              0.272291719 a.u.                7.4094 eV 
  <S2> =   1.7219
  ----------------------------------------------------------------------------
     Transition Moments    X  0.00001   Y -0.00000   Z  0.00307
     Transition Moments   XX -0.00006  XY  0.00003  XZ  0.54357
     Transition Moments   YY -0.00001  YZ  0.09766  ZZ -0.00002
     Dipole Oscillator Strength                    0.0000017115
     Electric Quadrupole                           0.0000000328
     Magnetic Dipole                               0.0000000013
     Total Oscillator Strength                     0.0000017456
 
     Occ.   19 alpha a   ---  Virt.   27 alpha a    0.98923 X
     Occ.   19 alpha a   ---  Virt.   38 alpha a   -0.09582 X
  ----------------------------------------------------------------------------
  Root  40         a              0.272513389 a.u.                7.4155 eV 
  <S2> =   1.9621
  ----------------------------------------------------------------------------
     Transition Moments    X -0.00001   Y  0.00003   Z  0.04148
     Transition Moments   XX  0.00003  XY  0.00003  XZ -0.03287
     Transition Moments   YY  0.00005  YZ  0.44036  ZZ  0.00001
     Dipole Oscillator Strength                    0.0003126536
     Electric Quadrupole                           0.0000000210
     Magnetic Dipole                               0.0000000053
     Total Oscillator Strength                     0.0003126799
 
     Occ.   19 alpha a   ---  Virt.   28 alpha a   -0.11653 X
     Occ.   20 alpha a   ---  Virt.   27 alpha a    0.12468 X
     Occ.   17 beta  a   ---  Virt.   21 beta  a   -0.05505 X
     Occ.   19 beta  a   ---  Virt.   27 beta  a    0.06702 X
     Occ.   20 beta  a   ---  Virt.   28 beta  a    0.96955 X
     Occ.   20 beta  a   ---  Virt.   30 beta  a    0.05571 X
     Occ.   20 beta  a   ---  Virt.   32 beta  a    0.07463 X
     Occ.   20 beta  a   ---  Virt.   43 beta  a    0.08100 X
 
              Target root =      1
          Target symmetry = none
      Ground state energy =   -231.646324436424
        Excitation energy =      0.106298538647
     Excited state energy =   -231.540025897777
 
  stored tddft:energy   -231.540025897777     

 Task  times  cpu:     2977.0s     wall:     3070.7s
 
 
                                NWChem Input Module
                                -------------------
 
 
 Summary of allocated global arrays
-----------------------------------
  No active global arrays



                         GA Statistics for process    0
                         ------------------------------

       create   destroy   get      put      acc     scatter   gather  read&inc
calls: 9601     9601     1.02e+07 4.29e+06 2.05e+06 5660        0      321     
number of processes/call 1.31e+00 1.71e+00 1.90e+00 0.00e+00 0.00e+00
bytes total:             8.95e+10 1.17e+10 9.31e+10 6.26e+04 0.00e+00 2.57e+03
bytes remote:            6.52e+10 1.11e+09 8.88e+10 0.00e+00 0.00e+00 0.00e+00
Max memory consumed for GA by this process: 205086464 bytes
 
MA_summarize_allocated_blocks: starting scan ...
MA_summarize_allocated_blocks: scan completed: 0 heap blocks, 0 stack blocks
MA usage statistics:

	allocation statistics:
					      heap	     stack
					      ----	     -----
	current number of blocks	         0	         0
	maximum number of blocks	        20	        52
	current total bytes		         0	         0
	maximum total bytes		   1166000	  68276408
	maximum total K-bytes		      1166	     68277
	maximum total M-bytes		         2	        69
 
 
                                     CITATION
                                     --------
                Please cite the following reference when publishing
                           results obtained with NWChem:
 
                 M. Valiev, E.J. Bylaska, N. Govind, K. Kowalski,
              T.P. Straatsma, H.J.J. van Dam, D. Wang, J. Nieplocha,
                        E. Apra, T.L. Windus, W.A. de Jong
                 "NWChem: a comprehensive and scalable open-source
                  solution for large scale molecular simulations"
                      Comput. Phys. Commun. 181, 1477 (2010)
                           doi:10.1016/j.cpc.2010.04.018
 
                                      AUTHORS
                                      -------
          E. Apra, E. J. Bylaska, W. A. de Jong, N. Govind, K. Kowalski,
       T. P. Straatsma, M. Valiev, H. J. J. van Dam, D. Wang, T. L. Windus,
        J. Hammond, J. Autschbach, K. Bhaskaran-Nair, J. Brabec, K. Lopata,
    S. A. Fischer, S. Krishnamoorthy, M. Jacquelin, W. Ma, M. Klemm, O. Villa,
      Y. Chen, V. Anisimov, F. Aquino, S. Hirata, M. T. Hackler, V. Konjkov,
            D. Mejia-Rodriguez, T. Risthaus, M. Malagoli, A. Marenich,
   A. Otero-de-la-Roza, J. Mullin, P. Nichols, R. Peverati, J. Pittner, Y. Zhao,
        P.-D. Fan, A. Fonari, M. J. Williamson, R. J. Harrison, J. R. Rehr,
      M. Dupuis, D. Silverstein, D. M. A. Smith, J. Nieplocha, V. Tipparaju,
    M. Krishnan, B. E. Van Kuiken, A. Vazquez-Mayagoitia, L. Jensen, M. Swart,
      Q. Wu, T. Van Voorhis, A. A. Auer, M. Nooijen, L. D. Crosby, E. Brown,
      G. Cisneros, G. I. Fann, H. Fruchtl, J. Garza, K. Hirao, R. A. Kendall,
      J. A. Nichols, K. Tsemekhman, K. Wolinski, J. Anchell, D. E. Bernholdt,
      P. Borowski, T. Clark, D. Clerc, H. Dachsel, M. J. O. Deegan, K. Dyall,
    D. Elwood, E. Glendening, M. Gutowski, A. C. Hess, J. Jaffe, B. G. Johnson,
     J. Ju, R. Kobayashi, R. Kutteh, Z. Lin, R. Littlefield, X. Long, B. Meng,
      T. Nakajima, S. Niu, L. Pollack, M. Rosing, K. Glaesemann, G. Sandrone,
      M. Stave, H. Taylor, G. Thomas, J. H. van Lenthe, A. T. Wong, Z. Zhang.

 Total times  cpu:     2977.0s     wall:     3071.8s
