 argument  1 = /storage/home/j/jbb5516/normalModes/mode1471.12-m.nw
 


============================== echo of input deck ==============================
echo
start

title "None"

geometry
C    -0.08751135    1.38891475    0.00000005
C    -1.26798519    0.69034615   -0.00000002
C    -1.16686872   -0.70479760   -0.00000002
C     0.08289658   -1.31569508    0.00000004
C     1.24610373   -0.55276567   -0.00000001
C     1.17130945    0.84403816    0.00000005
H    -2.23085265    1.18348852   -0.00000010
H    -2.06833742   -1.30404518   -0.00000009
H     0.15090379   -2.39499667    0.00000000
H     2.21566032   -1.03412197   -0.00000013
H     2.06466638    1.45413394   -0.00000010
symmetry c1
end

basis spherical
 * library "aug-cc-pvtz"
end

dft
 direct
 mult 2
 iterations 500
 xc b3lyp
end

tddft
 nroots 40
 notriplet
 algorithm 1
end
task tddft energy
================================================================================


                                         
                                         
 
 
              Northwest Computational Chemistry Package (NWChem) 6.8
              ------------------------------------------------------
 
 
                    Environmental Molecular Sciences Laboratory
                       Pacific Northwest National Laboratory
                                Richland, WA 99352
 
                              Copyright (c) 1994-2017
                       Pacific Northwest National Laboratory
                            Battelle Memorial Institute
 
             NWChem is an open-source computational chemistry package
                        distributed under the terms of the
                      Educational Community License (ECL) 2.0
             A copy of the license is included with this distribution
                              in the LICENSE.TXT file
 
                                  ACKNOWLEDGMENT
                                  --------------

            This software and its documentation were developed at the
            EMSL at Pacific Northwest National Laboratory, a multiprogram
            national laboratory, operated for the U.S. Department of Energy
            by Battelle under Contract Number DE-AC05-76RL01830. Support
            for this work was provided by the Department of Energy Office
            of Biological and Environmental Research, Office of Basic
            Energy Sciences, and the Office of Advanced Scientific Computing.


           Job information
           ---------------

    hostname        = comp-sc-0162.acib.production.int.aci.ics.psu.edu
    program         = /gpfs/group/lxj18/default/jeffprograms/nwchem-6.8.1/bin/LINUX64/nwchem
    date            = Sun Sep 20 16:45:07 2020

    compiled        = Wed_Oct_03_14:08:39_2018
    source          = /gpfs/group/lxj18/default/jeffprograms/nwchem-6.8.1
    nwchem branch   = 6.8.1
    nwchem revision = v6.8-143-gdb0d964
    ga revision     = 5.6.5
    use scalapack   = F
    input           = /storage/home/j/jbb5516/normalModes/mode1471.12-m.nw
    prefix          = mode1471.12-m.
    data base       = ./mode1471.12-m.db
    status          = startup
    nproc           =       20
    time left       =     -1s



           Memory information
           ------------------

    heap     =   13107198 doubles =    100.0 Mbytes
    stack    =   13107195 doubles =    100.0 Mbytes
    global   =   26214400 doubles =    200.0 Mbytes (distinct from heap & stack)
    total    =   52428793 doubles =    400.0 Mbytes
    verify   = yes
    hardfail = no 


           Directory information
           ---------------------
 
  0 permanent = .
  0 scratch   = .
 
 
 
 
                                NWChem Input Module
                                -------------------
 
 
                                       None
                                       ----

 Scaling coordinates for geometry "geometry" by  1.889725989
 (inverse scale =  0.529177249)

 Turning off AUTOSYM since
 SYMMETRY directive was detected!
 

          ------
          auto-z
          ------
 
 
                             Geometry "geometry" -> ""
                             -------------------------
 
 Output coordinates in angstroms (scale by  1.889725989 to convert to a.u.)
 
  No.       Tag          Charge          X              Y              Z
 ---- ---------------- ---------- -------------- -------------- --------------
    1 C                    6.0000    -0.08750421     1.38880005     0.00000005
    2 C                    6.0000    -1.26797805     0.69023145    -0.00000002
    3 C                    6.0000    -1.16686158    -0.70491230    -0.00000002
    4 C                    6.0000     0.08290372    -1.31580978     0.00000004
    5 C                    6.0000     1.24611087    -0.55288037    -0.00000001
    6 C                    6.0000     1.17131659     0.84392346     0.00000005
    7 H                    1.0000    -2.23084551     1.18337382    -0.00000010
    8 H                    1.0000    -2.06833028    -1.30415988    -0.00000009
    9 H                    1.0000     0.15091093    -2.39511137    -0.00000000
   10 H                    1.0000     2.21566746    -1.03423667    -0.00000013
   11 H                    1.0000     2.06467352     1.45401924    -0.00000010
 
      Atomic Mass 
      ----------- 
 
      C                 12.000000
      H                  1.007825
 

 Effective nuclear repulsion energy (a.u.)     195.0647844180

            Nuclear Dipole moment (a.u.) 
            ----------------------------
        X                 Y               Z
 ---------------- ---------------- ----------------
    -0.0000000000     0.0000000000     0.0000000000
 


                                Z-matrix (autoz)
                                -------- 

 Units are Angstrom for bonds and degrees for angles
 
      Type          Name      I     J     K     L     M      Value
      ----------- --------  ----- ----- ----- ----- ----- ----------
    1 Stretch                  1     2                       1.37168
    2 Stretch                  1     6                       1.37169
    3 Stretch                  2     3                       1.39880
    4 Stretch                  2     7                       1.08181
    5 Stretch                  3     4                       1.39108
    6 Stretch                  3     8                       1.08247
    7 Stretch                  4     5                       1.39108
    8 Stretch                  4     9                       1.08144
    9 Stretch                  5     6                       1.39880
   10 Stretch                  5    10                       1.08247
   11 Stretch                  6    11                       1.08181
   12 Bend                     1     2     3               116.47036
   13 Bend                     1     2     7               122.26452
   14 Bend                     1     6     5               116.47030
   15 Bend                     1     6    11               122.26463
   16 Bend                     2     1     6               125.97902
   17 Bend                     2     3     4               120.19524
   18 Bend                     2     3     8               119.46840
   19 Bend                     3     2     7               121.26512
   20 Bend                     3     4     5               120.68992
   21 Bend                     3     4     9               119.65530
   22 Bend                     4     3     8               120.33636
   23 Bend                     4     5     6               120.19517
   24 Bend                     4     5    10               120.33671
   25 Bend                     5     4     9               119.65478
   26 Bend                     5     6    11               121.26507
   27 Bend                     6     5    10               119.46812
   28 Torsion                  1     2     3     4           0.00000
   29 Torsion                  1     2     3     8        -180.00000
   30 Torsion                  1     6     5     4           0.00000
   31 Torsion                  1     6     5    10         180.00000
   32 Torsion                  2     1     6     5           0.00000
   33 Torsion                  2     1     6    11         180.00000
   34 Torsion                  2     3     4     5           0.00000
   35 Torsion                  2     3     4     9        -180.00000
   36 Torsion                  3     2     1     6           0.00000
   37 Torsion                  3     4     5     6           0.00000
   38 Torsion                  3     4     5    10        -180.00000
   39 Torsion                  4     3     2     7         180.00000
   40 Torsion                  4     5     6    11        -180.00000
   41 Torsion                  5     4     3     8         180.00000
   42 Torsion                  6     1     2     7        -180.00000
   43 Torsion                  6     5     4     9        -180.00000
   44 Torsion                  7     2     3     8           0.00000
   45 Torsion                  8     3     4     9           0.00000
   46 Torsion                  9     4     5    10           0.00000
   47 Torsion                 10     5     6    11           0.00000
 
 
            XYZ format geometry
            -------------------
    11
 geometry
 C                    -0.08750421     1.38880005     0.00000005
 C                    -1.26797805     0.69023145    -0.00000002
 C                    -1.16686158    -0.70491230    -0.00000002
 C                     0.08290372    -1.31580978     0.00000004
 C                     1.24611087    -0.55288037    -0.00000001
 C                     1.17131659     0.84392346     0.00000005
 H                    -2.23084551     1.18337382    -0.00000010
 H                    -2.06833028    -1.30415988    -0.00000009
 H                     0.15091093    -2.39511137    -0.00000000
 H                     2.21566746    -1.03423667    -0.00000013
 H                     2.06467352     1.45401924    -0.00000010
 
 ==============================================================================
                                internuclear distances
 ------------------------------------------------------------------------------
       center one      |      center two      | atomic units |  angstroms
 ------------------------------------------------------------------------------
    2 C                |   1 C                |     2.59211  |     1.37168
    3 C                |   2 C                |     2.64335  |     1.39880
    4 C                |   3 C                |     2.62876  |     1.39108
    5 C                |   4 C                |     2.62877  |     1.39108
    6 C                |   1 C                |     2.59211  |     1.37169
    6 C                |   5 C                |     2.64336  |     1.39880
    7 H                |   2 C                |     2.04432  |     1.08181
    8 H                |   3 C                |     2.04557  |     1.08247
    9 H                |   4 C                |     2.04363  |     1.08144
   10 H                |   5 C                |     2.04557  |     1.08247
   11 H                |   6 C                |     2.04432  |     1.08181
 ------------------------------------------------------------------------------
                         number of included internuclear distances:         11
 ==============================================================================



 ==============================================================================
                                 internuclear angles
 ------------------------------------------------------------------------------
        center 1       |       center 2       |       center 3       |  degrees
 ------------------------------------------------------------------------------
    2 C                |   1 C                |   6 C                |   125.98
    1 C                |   2 C                |   3 C                |   116.47
    1 C                |   2 C                |   7 H                |   122.26
    3 C                |   2 C                |   7 H                |   121.27
    2 C                |   3 C                |   4 C                |   120.20
    2 C                |   3 C                |   8 H                |   119.47
    4 C                |   3 C                |   8 H                |   120.34
    3 C                |   4 C                |   5 C                |   120.69
    3 C                |   4 C                |   9 H                |   119.66
    5 C                |   4 C                |   9 H                |   119.65
    4 C                |   5 C                |   6 C                |   120.20
    4 C                |   5 C                |  10 H                |   120.34
    6 C                |   5 C                |  10 H                |   119.47
    1 C                |   6 C                |   5 C                |   116.47
    1 C                |   6 C                |  11 H                |   122.26
    5 C                |   6 C                |  11 H                |   121.27
 ------------------------------------------------------------------------------
                            number of included internuclear angles:         16
 ==============================================================================





 Summary of "ao basis" -> "" (spherical)
 ------------------------------------------------------------------------------
       Tag                 Description            Shells   Functions and Types
 ---------------- ------------------------------  ------  ---------------------
 *                        aug-cc-pvtz                 on all atoms 


 
                                 NWChem DFT Module
                                 -----------------
 
 
                                       None
 
 
                      Basis "ao basis" -> "ao basis" (spherical)
                      -----
  C (Carbon)
  ----------
            Exponent  Coefficients 
       -------------- ---------------------------------------------------------
  1 S  8.23600000E+03  0.000531
  1 S  1.23500000E+03  0.004108
  1 S  2.80800000E+02  0.021087
  1 S  7.92700000E+01  0.081853
  1 S  2.55900000E+01  0.234817
  1 S  8.99700000E+00  0.434401
  1 S  3.31900000E+00  0.346129
  1 S  3.64300000E-01 -0.008983
 
  2 S  8.23600000E+03 -0.000113
  2 S  1.23500000E+03 -0.000878
  2 S  2.80800000E+02 -0.004540
  2 S  7.92700000E+01 -0.018133
  2 S  2.55900000E+01 -0.055760
  2 S  8.99700000E+00 -0.126895
  2 S  3.31900000E+00 -0.170352
  2 S  3.64300000E-01  0.598684
 
  3 S  9.05900000E-01  1.000000
 
  4 S  1.28500000E-01  1.000000
 
  5 S  4.40200000E-02  1.000000
 
  6 P  1.87100000E+01  0.014031
  6 P  4.13300000E+00  0.086866
  6 P  1.20000000E+00  0.290216
 
  7 P  3.82700000E-01  1.000000
 
  8 P  1.20900000E-01  1.000000
 
  9 P  3.56900000E-02  1.000000
 
 10 D  1.09700000E+00  1.000000
 
 11 D  3.18000000E-01  1.000000
 
 12 D  1.00000000E-01  1.000000
 
 13 F  7.61000000E-01  1.000000
 
 14 F  2.68000000E-01  1.000000
 
  H (Hydrogen)
  ------------
            Exponent  Coefficients 
       -------------- ---------------------------------------------------------
  1 S  3.38700000E+01  0.006068
  1 S  5.09500000E+00  0.045308
  1 S  1.15900000E+00  0.202822
 
  2 S  3.25800000E-01  1.000000
 
  3 S  1.02700000E-01  1.000000
 
  4 S  2.52600000E-02  1.000000
 
  5 P  1.40700000E+00  1.000000
 
  6 P  3.88000000E-01  1.000000
 
  7 P  1.02000000E-01  1.000000
 
  8 D  1.05700000E+00  1.000000
 
  9 D  2.47000000E-01  1.000000
 


 Summary of "ao basis" -> "ao basis" (spherical)
 ------------------------------------------------------------------------------
       Tag                 Description            Shells   Functions and Types
 ---------------- ------------------------------  ------  ---------------------
 C                        aug-cc-pvtz               14       46   5s4p3d2f
 H                        aug-cc-pvtz                9       23   4s3p2d




 Summary of "ao basis" -> "ao basis" (spherical)
 ------------------------------------------------------------------------------
       Tag                 Description            Shells   Functions and Types
 ---------------- ------------------------------  ------  ---------------------
 C                        aug-cc-pvtz               14       46   5s4p3d2f
 H                        aug-cc-pvtz                9       23   4s3p2d


  Caching 1-el integrals 
 
            General Information
            -------------------
          SCF calculation type: DFT
          Wavefunction type:  spin polarized.
          No. of atoms     :    11
          No. of electrons :    41
           Alpha electrons :    21
            Beta electrons :    20
          Charge           :     0
          Spin multiplicity:     2
          Use of symmetry is: off; symmetry adaption is: off
          Maximum number of iterations: 500
          This is a Direct SCF calculation.
          AO basis - number of functions:   391
                     number of shells:   129
          Convergence on energy requested:  1.00D-06
          Convergence on density requested:  1.00D-05
          Convergence on gradient requested:  5.00D-04
 
              XC Information
              --------------
                         B3LYP Method XC Potential
                     Hartree-Fock (Exact) Exchange  0.200          
                        Slater Exchange Functional  0.800 local    
                    Becke 1988 Exchange Functional  0.720 non-local
              Lee-Yang-Parr Correlation Functional  0.810          
                  VWN I RPA Correlation Functional  0.190 local    
 
             Grid Information
             ----------------
          Grid used for XC integration:  medium    
          Radial quadrature: Mura-Knowles        
          Angular quadrature: Lebedev. 
          Tag              B.-S. Rad. Rad. Pts. Rad. Cut. Ang. Pts.
          ---              ---------- --------- --------- ---------
          C                   0.70       49          15.0       434
          H                   0.35       45          17.0       434
          Grid pruning is: on 
          Number of quadrature shells:   519
          Spatial weights used:  Erf1
 
          Convergence Information
          -----------------------
          Convergence aids based upon iterative change in 
          total energy or number of iterations. 
          Levelshifting, if invoked, occurs when the 
          HOMO/LUMO gap drops below (HL_TOL):  1.00D-02
          DIIS, if invoked, will attempt to extrapolate 
          using up to (NFOCK): 10 stored Fock matrices.

                    Damping( 0%)  Levelshifting(0.5)       DIIS
                  --------------- ------------------- ---------------
          dE  on:    start            ASAP                start   
          dE off:    2 iters        500 iters           500 iters 

 
      Screening Tolerance Information
      -------------------------------
          Density screening/tol_rho:  1.00D-10
          AO Gaussian exp screening on grid/accAOfunc:  14
          CD Gaussian exp screening on grid/accCDfunc:  20
          XC Gaussian exp screening on grid/accXCfunc:  20
          Schwarz screening/accCoul:  1.00D-08

 
 WARNING : Found     7 linear dependencies 
 S eigenvalue threshold:     1.00000E-05
 Smallest S eigenvalue :     1.47731E-06
 Largest  S eigenvalue :     7.72730E-06
 

 !! The overlap matrix has   7 vectors deemed linearly dependent with
    eigenvalues:
 1.48D-06 2.24D-06 2.83D-06 3.54D-06 5.29D-06 5.95D-06 7.73D-06
 
 
      Superposition of Atomic Density Guess
      -------------------------------------
 
 Sum of atomic energies:        -228.52307259
 
      Non-variational initial energy
      ------------------------------

 Total energy =    -232.667316
 1-e energy   =    -691.330320
 2-e energy   =     263.598220
 HOMO         =      -0.183403
 LUMO         =      -0.022133
 
   Time after variat. SCF:      8.9
   Time prior to 1st pass:      8.9

 Grid_pts file          = ./mode1471.12-m.gridpts.00
 Record size in doubles =  12289        No. of grid_pts per rec  =   3070
 Max. records in memory =      6        Max. recs in file   = 221369921

 Grid integrated density:      40.999766334311
 Requested integration accuracy:   0.10E-05

           Memory utilization after 1st SCF pass: 
           Heap Space remaining (MW):       12.96            12961278
          Stack Space remaining (MW):       13.10            13103676

   convergence    iter        energy       DeltaE   RMS-Dens  Diis-err    time
 ---------------- ----- ----------------- --------- --------- ---------  ------
 d= 0,ls=0.0,diis     1   -231.5814635017 -4.27D+02  6.17D-02  2.09D-01    19.7
                                                     6.98D-02  1.96D-01
 d= 0,ls=0.0,diis     2   -231.6398480647 -5.84D-02  6.07D-02  1.21D-02    30.4
                                                     6.86D-02  1.25D-02
 d= 0,ls=0.0,diis     3   -231.6446282556 -4.78D-03  1.27D-03  3.40D-03    41.1
                                                     1.38D-03  3.44D-03
 d= 0,ls=0.0,diis     4   -231.6457616549 -1.13D-03  2.00D-04  1.11D-03    51.9
                                                     2.04D-04  1.06D-03
 d= 0,ls=0.0,diis     5   -231.6462764816 -5.15D-04  3.37D-05  4.56D-05    62.6
                                                     3.05D-05  5.04D-05
  Resetting Diis
 d= 0,ls=0.0,diis     6   -231.6463046079 -2.81D-05  1.08D-05  9.94D-06    73.4
                                                     1.06D-05  8.79D-06
 d= 0,ls=0.0,diis     7   -231.6463118342 -7.23D-06  8.15D-06  2.52D-06    84.1
                                                     7.06D-06  2.49D-06
 d= 0,ls=0.0,diis     8   -231.6463126466 -8.12D-07  3.25D-06  6.44D-06    94.8
                                                     2.92D-06  5.88D-06


         Total DFT energy =     -231.646312646576
      One electron energy =     -696.564158857480
           Coulomb energy =      304.262355763669
    Exchange-Corr. energy =      -34.409293970781
 Nuclear repulsion energy =      195.064784418017

 Numeric. integr. density =       40.999983920546

     Total iterative time =     85.9s


 
                    DFT Final Alpha Molecular Orbital Analysis
                    ------------------------------------------
 
 Vector    1  Occ=1.000000D+00  E=-1.020534D+01
              MO Center= -8.7D-02,  1.4D+00,  4.8D-08, r^2= 3.0D-02
   Bfn.  Coefficient  Atom+Function         Bfn.  Coefficient  Atom+Function  
  ----- ------------  ---------------      ----- ------------  ---------------
     1      0.984145   1 C  s                 3      0.058796   1 C  s         
    50     -0.039020   2 C  s               234     -0.039019   6 C  s         
   279      0.038297   7 H  s               371      0.038299  11 H  s         
   143      0.037963   4 C  s                51     -0.030951   2 C  s         
   235     -0.030951   6 C  s                47      0.025089   2 C  s         
 
 Vector    2  Occ=1.000000D+00  E=-1.019177D+01
              MO Center=  7.4D-01, -5.2D-01, -1.5D-08, r^2= 1.1D+00
   Bfn.  Coefficient  Atom+Function         Bfn.  Coefficient  Atom+Function  
  ----- ------------  ---------------      ----- ------------  ---------------
   185      0.855181   5 C  s                93      0.440361   3 C  s         
   231      0.192695   6 C  s               142     -0.094120   4 C  s         
    47      0.087638   2 C  s               139      0.057758   4 C  s         
   187      0.051187   5 C  s               325      0.047966   9 H  s         
   348      0.047844  10 H  s                50      0.033889   2 C  s         
 
 Vector    3  Occ=1.000000D+00  E=-1.019175D+01
              MO Center= -6.7D-01, -5.9D-01, -2.1D-08, r^2= 1.1D+00
   Bfn.  Coefficient  Atom+Function         Bfn.  Coefficient  Atom+Function  
  ----- ------------  ---------------      ----- ------------  ---------------
    93      0.852474   3 C  s               185     -0.435160   5 C  s         
    47      0.208636   2 C  s               231     -0.118451   6 C  s         
   234      0.062278   6 C  s               302      0.058724   8 H  s         
   235      0.053325   6 C  s                50     -0.052348   2 C  s         
   371     -0.052579  11 H  s                95      0.050854   3 C  s         
 
 Vector    4  Occ=1.000000D+00  E=-1.019043D+01
              MO Center=  9.0D-01,  7.6D-01,  3.7D-08, r^2= 7.1D-01
   Bfn.  Coefficient  Atom+Function         Bfn.  Coefficient  Atom+Function  
  ----- ------------  ---------------      ----- ------------  ---------------
   231      0.905915   6 C  s                47      0.323729   2 C  s         
   185     -0.205315   5 C  s                93     -0.061108   3 C  s         
   371      0.057276  11 H  s               233      0.052983   6 C  s         
   143      0.040809   4 C  s                 4     -0.037646   1 C  s         
   142     -0.032300   4 C  s               325     -0.031614   9 H  s         
 
 Vector    5  Occ=1.000000D+00  E=-1.019041D+01
              MO Center= -9.9D-01,  6.3D-01, -1.6D-08, r^2= 7.2D-01
   Bfn.  Coefficient  Atom+Function         Bfn.  Coefficient  Atom+Function  
  ----- ------------  ---------------      ----- ------------  ---------------
    47      0.903046   2 C  s               231     -0.315685   6 C  s         
    93     -0.214606   3 C  s               185      0.087015   5 C  s         
   279      0.053200   7 H  s                49      0.052176   2 C  s         
   189      0.047738   5 C  s               188      0.043261   5 C  s         
    97     -0.042476   3 C  s                12      0.039399   1 C  px        
 
 Vector    6  Occ=1.000000D+00  E=-1.018445D+01
              MO Center=  8.3D-02, -1.3D+00,  3.9D-08, r^2= 3.5D-02
   Bfn.  Coefficient  Atom+Function         Bfn.  Coefficient  Atom+Function  
  ----- ------------  ---------------      ----- ------------  ---------------
   139      0.984184   4 C  s               141      0.057801   4 C  s         
   325      0.045948   9 H  s                96     -0.045227   3 C  s         
   188     -0.045228   5 C  s               143     -0.043831   4 C  s         
    93     -0.040975   3 C  s               185     -0.040902   5 C  s         
     4      0.039986   1 C  s               151      0.035788   4 C  py        
 
 Vector    7  Occ=1.000000D+00  E=-8.724725D-01
              MO Center= -5.9D-03,  9.5D-02,  5.0D-09, r^2= 2.0D+00
   Bfn.  Coefficient  Atom+Function         Bfn.  Coefficient  Atom+Function  
  ----- ------------  ---------------      ----- ------------  ---------------
     2      0.213032   1 C  s                48      0.202411   2 C  s         
   232      0.202424   6 C  s                94      0.195982   3 C  s         
   186      0.195995   5 C  s               140      0.188974   4 C  s         
    96      0.089915   3 C  s               188      0.089922   5 C  s         
    50      0.089082   2 C  s               234      0.089083   6 C  s         
 
 Vector    8  Occ=1.000000D+00  E=-7.628502D-01
              MO Center= -6.3D-03,  9.9D-02,  1.9D-09, r^2= 2.8D+00
   Bfn.  Coefficient  Atom+Function         Bfn.  Coefficient  Atom+Function  
  ----- ------------  ---------------      ----- ------------  ---------------
    48      0.250873   2 C  s               232     -0.250864   6 C  s         
    94      0.243894   3 C  s               186     -0.243891   5 C  s         
    50      0.147308   2 C  s               234     -0.147307   6 C  s         
   279     -0.129843   7 H  s               371      0.129844  11 H  s         
   150     -0.114862   4 C  px               97      0.110979   3 C  s         
 
 Vector    9  Occ=1.000000D+00  E=-7.537025D-01
              MO Center=  9.1D-03, -1.4D-01, -2.7D-08, r^2= 2.6D+00
   Bfn.  Coefficient  Atom+Function         Bfn.  Coefficient  Atom+Function  
  ----- ------------  ---------------      ----- ------------  ---------------
   140     -0.300962   4 C  s                 2      0.278460   1 C  s         
    48      0.148674   2 C  s                94     -0.148146   3 C  s         
   232      0.148683   6 C  s               142     -0.147703   4 C  s         
   186     -0.148149   5 C  s                96     -0.104699   3 C  s         
   188     -0.104705   5 C  s                 4      0.103935   1 C  s         
 
 Vector   10  Occ=1.000000D+00  E=-6.187006D-01
              MO Center= -2.6D-03,  4.1D-02, -1.0D-08, r^2= 3.6D+00
   Bfn.  Coefficient  Atom+Function         Bfn.  Coefficient  Atom+Function  
  ----- ------------  ---------------      ----- ------------  ---------------
    94     -0.208469   3 C  s               186      0.208473   5 C  s         
    48      0.199499   2 C  s               232     -0.199494   6 C  s         
    50      0.183417   2 C  s               234     -0.183410   6 C  s         
    96     -0.146264   3 C  s               188      0.146263   5 C  s         
     6     -0.126995   1 C  px              144      0.117075   4 C  px        
 
 Vector   11  Occ=1.000000D+00  E=-6.036021D-01
              MO Center=  5.5D-03, -8.8D-02, -3.1D-08, r^2= 3.5D+00
   Bfn.  Coefficient  Atom+Function         Bfn.  Coefficient  Atom+Function  
  ----- ------------  ---------------      ----- ------------  ---------------
   142      0.258898   4 C  s                 2      0.239238   1 C  s         
   140      0.218661   4 C  s                 4      0.198659   1 C  s         
    94     -0.138665   3 C  s               186     -0.138651   5 C  s         
    50     -0.123515   2 C  s               234     -0.123519   6 C  s         
    96     -0.117969   3 C  s               188     -0.117964   5 C  s         
 
 Vector   12  Occ=1.000000D+00  E=-5.278520D-01
              MO Center=  9.6D-03, -1.5D-01, -1.1D-08, r^2= 4.1D+00
   Bfn.  Coefficient  Atom+Function         Bfn.  Coefficient  Atom+Function  
  ----- ------------  ---------------      ----- ------------  ---------------
   148      0.159379   4 C  py              145      0.138919   4 C  py        
   324     -0.126862   9 H  s                55      0.105383   2 C  px        
   240     -0.104762   6 C  py              323     -0.100361   9 H  s         
   237     -0.096120   6 C  py              193     -0.094531   5 C  px        
   278     -0.094424   7 H  s               370     -0.094431  11 H  s         
 
 Vector   13  Occ=1.000000D+00  E=-4.644481D-01
              MO Center= -5.9D-03,  9.4D-02,  3.6D-10, r^2= 2.7D+00
   Bfn.  Coefficient  Atom+Function         Bfn.  Coefficient  Atom+Function  
  ----- ------------  ---------------      ----- ------------  ---------------
     9      0.188159   1 C  px                6      0.174295   1 C  px        
   147      0.173463   4 C  px              144      0.160074   4 C  px        
   194     -0.135648   5 C  py              239     -0.135536   6 C  px        
    56     -0.132229   2 C  py              191     -0.122325   5 C  py        
   102      0.121515   3 C  py              236     -0.120475   6 C  px        
 
 Vector   14  Occ=1.000000D+00  E=-4.630304D-01
              MO Center=  9.6D-03, -1.5D-01, -4.3D-08, r^2= 4.8D+00
   Bfn.  Coefficient  Atom+Function         Bfn.  Coefficient  Atom+Function  
  ----- ------------  ---------------      ----- ------------  ---------------
     2      0.177285   1 C  s               301      0.136500   8 H  s         
   347      0.136510  10 H  s               140     -0.128803   4 C  s         
   193      0.127760   5 C  px              196      0.120748   5 C  px        
   101     -0.118703   3 C  px              190      0.118556   5 C  px        
   104     -0.117768   3 C  px               96      0.115962   3 C  s         
 
 Vector   15  Occ=1.000000D+00  E=-4.401156D-01
              MO Center= -1.3D-02,  2.1D-01, -2.6D-08, r^2= 4.0D+00
   Bfn.  Coefficient  Atom+Function         Bfn.  Coefficient  Atom+Function  
  ----- ------------  ---------------      ----- ------------  ---------------
   240      0.143219   6 C  py              102      0.138316   3 C  py        
   237      0.132148   6 C  py              278     -0.131663   7 H  s         
   370      0.131666  11 H  s                55      0.130356   2 C  px        
    99      0.129479   3 C  py               56     -0.127863   2 C  py        
   194     -0.125968   5 C  py               53     -0.118785   2 C  py        
 
 Vector   16  Occ=1.000000D+00  E=-3.991508D-01
              MO Center=  4.9D-02, -7.8D-01, -9.0D-09, r^2= 3.3D+00
   Bfn.  Coefficient  Atom+Function         Bfn.  Coefficient  Atom+Function  
  ----- ------------  ---------------      ----- ------------  ---------------
   148      0.233469   4 C  py              145      0.209133   4 C  py        
   324     -0.198614   9 H  s               151      0.173644   4 C  py        
   323     -0.154092   9 H  s                10      0.138189   1 C  py        
    13      0.120827   1 C  py              240      0.115086   6 C  py        
    56      0.109370   2 C  py              194     -0.108498   5 C  py        
 
 Vector   17  Occ=1.000000D+00  E=-3.836974D-01
              MO Center= -7.3D-03,  1.2D-01, -5.8D-08, r^2= 2.7D+00
   Bfn.  Coefficient  Atom+Function         Bfn.  Coefficient  Atom+Function  
  ----- ------------  ---------------      ----- ------------  ---------------
    11      0.172446   1 C  pz               57      0.156407   2 C  pz        
   241      0.156416   6 C  pz              103      0.152362   3 C  pz        
   195      0.152371   5 C  pz              149      0.146639   4 C  pz        
     8      0.136079   1 C  pz               54      0.125744   2 C  pz        
   238      0.125751   6 C  pz              100      0.121867   3 C  pz        
 
 Vector   18  Occ=1.000000D+00  E=-3.658853D-01
              MO Center=  8.3D-03, -1.3D-01, -2.7D-08, r^2= 4.1D+00
   Bfn.  Coefficient  Atom+Function         Bfn.  Coefficient  Atom+Function  
  ----- ------------  ---------------      ----- ------------  ---------------
   147     -0.168353   4 C  px              101      0.164331   3 C  px        
   193      0.164341   5 C  px              144     -0.158906   4 C  px        
     9      0.150677   1 C  px               98      0.148775   3 C  px        
   190      0.148550   5 C  px                6      0.142738   1 C  px        
   196      0.135210   5 C  px              239     -0.133889   6 C  px        
 
 Vector   19  Occ=1.000000D+00  E=-2.684287D-01
              MO Center=  8.7D-04, -1.3D-02,  8.1D-08, r^2= 3.0D+00
   Bfn.  Coefficient  Atom+Function         Bfn.  Coefficient  Atom+Function  
  ----- ------------  ---------------      ----- ------------  ---------------
    11      0.244974   1 C  pz              149     -0.238942   4 C  pz        
     8      0.192709   1 C  pz              146     -0.190976   4 C  pz        
    14      0.176118   1 C  pz              152     -0.172056   4 C  pz        
   103     -0.125717   3 C  pz              195     -0.125904   5 C  pz        
    57      0.115563   2 C  pz              241      0.115385   6 C  pz        
 
 Vector   20  Occ=1.000000D+00  E=-2.680086D-01
              MO Center= -4.1D-03,  6.3D-02,  2.8D-07, r^2= 3.1D+00
   Bfn.  Coefficient  Atom+Function         Bfn.  Coefficient  Atom+Function  
  ----- ------------  ---------------      ----- ------------  ---------------
   103      0.207066   3 C  pz              195     -0.206951   5 C  pz        
    57      0.204284   2 C  pz              241     -0.204382   6 C  pz        
   100      0.165019   3 C  pz              192     -0.164927   5 C  pz        
    54      0.163545   2 C  pz              238     -0.163623   6 C  pz        
    60      0.150779   2 C  pz              244     -0.150846   6 C  pz        
 
 Vector   21  Occ=1.000000D+00  E=-2.485435D-01
              MO Center= -8.2D-02,  1.3D+00,  8.1D-08, r^2= 2.3D+00
   Bfn.  Coefficient  Atom+Function         Bfn.  Coefficient  Atom+Function  
  ----- ------------  ---------------      ----- ------------  ---------------
    10      0.385872   1 C  py               13      0.336839   1 C  py        
     5      0.333620   1 C  s                 7      0.299390   1 C  py        
     4      0.282051   1 C  s                 2      0.138747   1 C  s         
   243     -0.135836   6 C  py               59     -0.133850   2 C  py        
   102      0.112173   3 C  py              194      0.112164   5 C  py        
 
 Vector   22  Occ=0.000000D+00  E=-2.593711D-02
              MO Center= -4.1D-03,  6.5D-02, -8.0D-07, r^2= 4.3D+00
   Bfn.  Coefficient  Atom+Function         Bfn.  Coefficient  Atom+Function  
  ----- ------------  ---------------      ----- ------------  ---------------
   109     -0.320872   3 C  pz              201      0.320892   5 C  pz        
    63      0.314749   2 C  pz              247     -0.314760   6 C  pz        
    60      0.226759   2 C  pz              244     -0.226765   6 C  pz        
   106     -0.224001   3 C  pz              198      0.224012   5 C  pz        
    57      0.218541   2 C  pz              241     -0.218544   6 C  pz        
 
 Vector   23  Occ=0.000000D+00  E=-1.872551D-02
              MO Center=  2.7D-03, -4.4D-02, -4.2D-06, r^2= 4.3D+00
   Bfn.  Coefficient  Atom+Function         Bfn.  Coefficient  Atom+Function  
  ----- ------------  ---------------      ----- ------------  ---------------
   155      0.438138   4 C  pz               17      0.373452   1 C  pz        
   152      0.273722   4 C  pz               11      0.259539   1 C  pz        
   149      0.250375   4 C  pz               14      0.240882   1 C  pz        
   109     -0.225660   3 C  pz              201     -0.225650   5 C  pz        
     8      0.201170   1 C  pz               63     -0.197551   2 C  pz        
 
 Vector   24  Occ=0.000000D+00  E=-1.011455D-02
              MO Center=  6.0D-02, -9.5D-01, -1.1D-06, r^2= 2.0D+01
   Bfn.  Coefficient  Atom+Function         Bfn.  Coefficient  Atom+Function  
  ----- ------------  ---------------      ----- ------------  ---------------
     5      1.437903   1 C  s               279     -0.978125   7 H  s         
   371     -0.978120  11 H  s               326     -0.741995   9 H  s         
   303     -0.729690   8 H  s               349     -0.729829  10 H  s         
   302     -0.648777   8 H  s               348     -0.648724  10 H  s         
   325     -0.588930   9 H  s                51      0.559984   2 C  s         
 
 Vector   25  Occ=0.000000D+00  E= 4.386870D-03
              MO Center=  1.6D-02, -2.6D-01, -5.0D-06, r^2= 2.7D+01
   Bfn.  Coefficient  Atom+Function         Bfn.  Coefficient  Atom+Function  
  ----- ------------  ---------------      ----- ------------  ---------------
    51      2.730202   2 C  s               235     -2.730883   6 C  s         
    97      2.669605   3 C  s               189     -2.669595   5 C  s         
   303      1.998360   8 H  s               349     -1.998239  10 H  s         
    15      1.874236   1 C  px              153      1.798139   4 C  px        
   280      1.538220   7 H  s               372     -1.538495  11 H  s         
 
 Vector   26  Occ=0.000000D+00  E= 8.727740D-03
              MO Center=  4.6D-03, -7.1D-02,  6.8D-05, r^2= 2.7D+01
   Bfn.  Coefficient  Atom+Function         Bfn.  Coefficient  Atom+Function  
  ----- ------------  ---------------      ----- ------------  ---------------
   143      6.238391   4 C  s                51     -4.012652   2 C  s         
   235     -4.012951   6 C  s               326      2.933908   9 H  s         
     5      2.569893   1 C  s               280     -2.388173   7 H  s         
   372     -2.388374  11 H  s               154      1.946662   4 C  py        
   246      1.938098   6 C  py               62      1.833874   2 C  py        
 
 Vector   27  Occ=0.000000D+00  E= 2.671301D-02
              MO Center= -1.6D-02,  2.5D-01, -2.0D-06, r^2= 3.1D+01
   Bfn.  Coefficient  Atom+Function         Bfn.  Coefficient  Atom+Function  
  ----- ------------  ---------------      ----- ------------  ---------------
   280      3.929478   7 H  s               372     -3.929680  11 H  s         
    51      3.637294   2 C  s               235     -3.637320   6 C  s         
   303     -3.599543   8 H  s               349      3.600216  10 H  s         
    61      2.220276   2 C  px               97     -2.190249   3 C  s         
   189      2.190125   5 C  s               199     -2.047608   5 C  px        
 
 Vector   28  Occ=0.000000D+00  E= 3.220026D-02
              MO Center=  3.9D-02, -6.3D-01, -1.1D-04, r^2= 2.9D+01
   Bfn.  Coefficient  Atom+Function         Bfn.  Coefficient  Atom+Function  
  ----- ------------  ---------------      ----- ------------  ---------------
     5      6.361545   1 C  s               326     -4.995491   9 H  s         
   303      3.725168   8 H  s               349      3.724668  10 H  s         
   154     -2.178325   4 C  py               97     -2.162640   3 C  s         
   189     -2.162961   5 C  s               199     -1.650967   5 C  px        
   245      1.628697   6 C  px               61     -1.576107   2 C  px        
 
 Vector   29  Occ=0.000000D+00  E= 4.328801D-02
              MO Center=  1.4D-02, -2.2D-01,  5.6D-06, r^2= 1.3D+01
   Bfn.  Coefficient  Atom+Function         Bfn.  Coefficient  Atom+Function  
  ----- ------------  ---------------      ----- ------------  ---------------
   155      0.599470   4 C  pz               63      0.575740   2 C  pz        
   247      0.575774   6 C  pz               17     -0.259499   1 C  pz        
    60     -0.155073   2 C  pz              244     -0.155054   6 C  pz        
   289     -0.123478   7 H  pz              381     -0.123479  11 H  pz        
   259      0.120175   6 C  d -1             77      0.109489   2 C  d  1      
 
 Vector   30  Occ=0.000000D+00  E= 5.493789D-02
              MO Center=  9.4D-03, -1.5D-01, -3.7D-05, r^2= 1.5D+01
   Bfn.  Coefficient  Atom+Function         Bfn.  Coefficient  Atom+Function  
  ----- ------------  ---------------      ----- ------------  ---------------
     5     10.744126   1 C  s               143      5.212146   4 C  s         
    51     -4.472498   2 C  s               235     -4.472697   6 C  s         
   303     -2.791901   8 H  s               349     -2.792034  10 H  s         
   326      2.042447   9 H  s               199      1.990107   5 C  px        
    97     -1.949029   3 C  s               189     -1.949286   5 C  s         
 
 Vector   31  Occ=0.000000D+00  E= 6.338101D-02
              MO Center= -4.1D-02,  6.5D-01, -1.2D-04, r^2= 2.8D+01
   Bfn.  Coefficient  Atom+Function         Bfn.  Coefficient  Atom+Function  
  ----- ------------  ---------------      ----- ------------  ---------------
     5     24.365083   1 C  s                51     -9.911295   2 C  s         
   235     -9.911474   6 C  s               143      7.653239   4 C  s         
    97     -6.467255   3 C  s               189     -6.467274   5 C  s         
   326      5.864004   9 H  s               154      4.766375   4 C  py        
   303     -4.679223   8 H  s               349     -4.679188  10 H  s         
 
 Vector   32  Occ=0.000000D+00  E= 6.574442D-02
              MO Center=  1.4D-03, -2.3D-02,  5.2D-04, r^2= 1.8D+01
   Bfn.  Coefficient  Atom+Function         Bfn.  Coefficient  Atom+Function  
  ----- ------------  ---------------      ----- ------------  ---------------
   109      0.974615   3 C  pz              201     -0.974633   5 C  pz        
    63      0.772049   2 C  pz              247     -0.772069   6 C  pz        
   169     -0.686180   4 C  d  1             31     -0.573000   1 C  d  1      
   106      0.493973   3 C  pz              198     -0.493961   5 C  pz        
    60      0.485930   2 C  pz              244     -0.485948   6 C  pz        
 
 Vector   33  Occ=0.000000D+00  E= 6.825497D-02
              MO Center= -1.2D-02,  1.9D-01, -3.0D-04, r^2= 1.8D+01
   Bfn.  Coefficient  Atom+Function         Bfn.  Coefficient  Atom+Function  
  ----- ------------  ---------------      ----- ------------  ---------------
    63      1.023805   2 C  pz              247      1.023840   6 C  pz        
   109     -0.809119   3 C  pz              201     -0.809216   5 C  pz        
   155     -0.754646   4 C  pz               14      0.625138   1 C  pz        
   152     -0.620764   4 C  pz               17      0.458605   1 C  pz        
   213     -0.449891   5 C  d -1            121     -0.405961   3 C  d -1      
 
 Vector   34  Occ=0.000000D+00  E= 7.646635D-02
              MO Center=  1.1D-02, -1.6D-01, -1.1D-04, r^2= 3.4D+01
   Bfn.  Coefficient  Atom+Function         Bfn.  Coefficient  Atom+Function  
  ----- ------------  ---------------      ----- ------------  ---------------
    51     13.883788   2 C  s               235    -13.885107   6 C  s         
    97     12.393206   3 C  s               189    -12.391434   5 C  s         
    15      7.724407   1 C  px              153      7.667204   4 C  px        
   107      4.736517   3 C  px              303      4.688662   8 H  s         
   349     -4.689211  10 H  s               199      4.437686   5 C  px        
 
 Vector   35  Occ=0.000000D+00  E= 7.792539D-02
              MO Center=  2.1D-01, -3.3D+00,  1.4D-04, r^2= 2.1D+01
   Bfn.  Coefficient  Atom+Function         Bfn.  Coefficient  Atom+Function  
  ----- ------------  ---------------      ----- ------------  ---------------
   143     18.226528   4 C  s                51    -13.436700   2 C  s         
   235    -13.440615   6 C  s               326      7.026389   9 H  s         
    62      5.650999   2 C  py              246      5.674894   6 C  py        
   200      5.385116   5 C  py              154      5.270993   4 C  py        
   108      5.026710   3 C  py              279      4.196809   7 H  s         
 
 Vector   36  Occ=0.000000D+00  E= 8.154026D-02
              MO Center= -8.9D-02,  1.4D+00,  9.4D-05, r^2= 2.8D+01
   Bfn.  Coefficient  Atom+Function         Bfn.  Coefficient  Atom+Function  
  ----- ------------  ---------------      ----- ------------  ---------------
   143     20.762682   4 C  s                51     -8.985146   2 C  s         
   235     -8.982118   6 C  s               246      5.287240   6 C  py        
    62      5.192728   2 C  py              325     -4.987773   9 H  s         
   280     -4.565212   7 H  s               372     -4.564818  11 H  s         
   200      4.503200   5 C  py              326      4.506637   9 H  s         
 
 Vector   37  Occ=0.000000D+00  E= 8.316159D-02
              MO Center=  4.6D-02, -7.3D-01, -9.9D-06, r^2= 2.2D+01
   Bfn.  Coefficient  Atom+Function         Bfn.  Coefficient  Atom+Function  
  ----- ------------  ---------------      ----- ------------  ---------------
    97      4.940084   3 C  s               189     -4.938717   5 C  s         
    51     -3.113294   2 C  s               235      3.108665   6 C  s         
   303      2.806526   8 H  s               349     -2.806667  10 H  s         
   108      2.788705   3 C  py              200     -2.670097   5 C  py        
   153      2.608431   4 C  px               96      2.095026   3 C  s         
 
 Vector   38  Occ=0.000000D+00  E= 9.544090D-02
              MO Center= -5.5D-02,  8.8D-01,  8.8D-06, r^2= 3.1D+01
   Bfn.  Coefficient  Atom+Function         Bfn.  Coefficient  Atom+Function  
  ----- ------------  ---------------      ----- ------------  ---------------
    51     17.509238   2 C  s               235    -17.506951   6 C  s         
   280      7.213889   7 H  s               372     -7.213793  11 H  s         
    97     -6.956537   3 C  s               189      6.955611   5 C  s         
   108     -6.363708   3 C  py              303     -6.201987   8 H  s         
   349      6.203086  10 H  s               200      5.816373   5 C  py        
 
 Vector   39  Occ=0.000000D+00  E= 1.017832D-01
              MO Center= -6.9D-03,  1.1D-01, -3.3D-04, r^2= 1.9D+01
   Bfn.  Coefficient  Atom+Function         Bfn.  Coefficient  Atom+Function  
  ----- ------------  ---------------      ----- ------------  ---------------
    51     13.855605   2 C  s               235    -13.856473   6 C  s         
    97     10.852291   3 C  s               189    -10.851866   5 C  s         
    15     10.068650   1 C  px              153      9.708589   4 C  px        
   246     -6.113512   6 C  py              108     -6.034486   3 C  py        
   200      5.994013   5 C  py               62      5.936752   2 C  py        
 
 Vector   40  Occ=0.000000D+00  E= 1.064387D-01
              MO Center= -8.1D-03,  1.3D-01, -5.8D-04, r^2= 2.1D+01
   Bfn.  Coefficient  Atom+Function         Bfn.  Coefficient  Atom+Function  
  ----- ------------  ---------------      ----- ------------  ---------------
   143     18.212230   4 C  s                51     -9.922530   2 C  s         
   235     -9.923849   6 C  s                 5     -9.418348   1 C  s         
   107     -8.774597   3 C  px              199      7.997605   5 C  px        
   245     -7.028405   6 C  px              200      6.692968   5 C  py        
    61      6.481345   2 C  px              108      5.635801   3 C  py        
 
 Vector   41  Occ=0.000000D+00  E= 1.082086D-01
              MO Center= -1.0D-02,  1.6D-01, -9.4D-05, r^2= 2.2D+01
   Bfn.  Coefficient  Atom+Function         Bfn.  Coefficient  Atom+Function  
  ----- ------------  ---------------      ----- ------------  ---------------
    63      3.390969   2 C  pz              247     -3.390853   6 C  pz        
   109     -3.366793   3 C  pz              201      3.366922   5 C  pz        
    60      0.694966   2 C  pz              244     -0.694924   6 C  pz        
   106     -0.638978   3 C  pz              198      0.638982   5 C  pz        
    77     -0.377887   2 C  d  1            215      0.359207   5 C  d  1      
 
 Vector   42  Occ=0.000000D+00  E= 1.089457D-01
              MO Center=  3.0D-02, -4.8D-01,  2.2D-03, r^2= 2.1D+01
   Bfn.  Coefficient  Atom+Function         Bfn.  Coefficient  Atom+Function  
  ----- ------------  ---------------      ----- ------------  ---------------
   155      5.336300   4 C  pz              109     -3.457438   3 C  pz        
   201     -3.457272   5 C  pz               17      2.490599   1 C  pz        
   152      0.990608   4 C  pz              106     -0.609242   3 C  pz        
   198     -0.609198   5 C  pz              167      0.573269   4 C  d -1      
    14      0.495935   1 C  pz               63     -0.457992   2 C  pz        
 
 Vector   43  Occ=0.000000D+00  E= 1.094626D-01
              MO Center=  2.8D-02, -4.5D-01, -1.2D-03, r^2= 2.7D+01
   Bfn.  Coefficient  Atom+Function         Bfn.  Coefficient  Atom+Function  
  ----- ------------  ---------------      ----- ------------  ---------------
   326      7.628854   9 H  s               154      7.082553   4 C  py        
   303     -6.438478   8 H  s               349     -6.437768  10 H  s         
   143     -5.794277   4 C  s               108     -4.483898   3 C  py        
   200     -4.249102   5 C  py               62     -4.212385   2 C  py        
   246     -4.181581   6 C  py                4      3.889100   1 C  s         
 
 Vector   44  Occ=0.000000D+00  E= 1.177967D-01
              MO Center= -4.2D-02,  6.6D-01, -4.2D-04, r^2= 1.4D+01
   Bfn.  Coefficient  Atom+Function         Bfn.  Coefficient  Atom+Function  
  ----- ------------  ---------------      ----- ------------  ---------------
    17      6.871270   1 C  pz               63     -6.017062   2 C  pz        
   247     -6.017179   6 C  pz              109      5.043165   3 C  pz        
   201      5.043292   5 C  pz              155     -4.808074   4 C  pz        
    14      1.230925   1 C  pz               60     -1.018106   2 C  pz        
   244     -1.018130   6 C  pz              106      0.890440   3 C  pz        
 
 Vector   45  Occ=0.000000D+00  E= 1.264202D-01
              MO Center= -1.8D-02,  2.9D-01, -2.8D-05, r^2= 2.5D+01
   Bfn.  Coefficient  Atom+Function         Bfn.  Coefficient  Atom+Function  
  ----- ------------  ---------------      ----- ------------  ---------------
    51      7.516934   2 C  s               235     -7.516303   6 C  s         
   107      7.200363   3 C  px              199      7.127608   5 C  px        
   245     -7.033341   6 C  px               61     -6.926751   2 C  px        
    15      6.447566   1 C  px               97     -6.154793   3 C  s         
   189      6.155282   5 C  s               153     -5.852577   4 C  px        
 
 Vector   46  Occ=0.000000D+00  E= 1.274460D-01
              MO Center= -1.2D-02,  1.8D-01,  1.3D-04, r^2= 2.6D+01
   Bfn.  Coefficient  Atom+Function         Bfn.  Coefficient  Atom+Function  
  ----- ------------  ---------------      ----- ------------  ---------------
   154     -8.030780   4 C  py               16      7.407891   1 C  py        
   108      6.889643   3 C  py               62     -6.571530   2 C  py        
   200      6.570457   5 C  py              246     -6.376302   6 C  py        
   326     -4.042277   9 H  s                 5      3.607633   1 C  s         
   303      3.164646   8 H  s               349      3.163905  10 H  s         
 
 Vector   47  Occ=0.000000D+00  E= 1.609303D-01
              MO Center= -8.4D-03,  1.3D-01,  9.5D-05, r^2= 1.7D+01
   Bfn.  Coefficient  Atom+Function         Bfn.  Coefficient  Atom+Function  
  ----- ------------  ---------------      ----- ------------  ---------------
    17      8.176305   1 C  pz               63     -8.000449   2 C  pz        
   247     -8.000331   6 C  pz              155     -7.873959   4 C  pz        
   109      7.784586   3 C  pz              201      7.784465   5 C  pz        
    60     -1.191122   2 C  pz              106      1.195471   3 C  pz        
   198      1.195442   5 C  pz              244     -1.191097   6 C  pz        
 
 Vector   48  Occ=0.000000D+00  E= 1.660984D-01
              MO Center= -8.9D-02,  1.4D+00,  3.2D-04, r^2= 2.2D+01
   Bfn.  Coefficient  Atom+Function         Bfn.  Coefficient  Atom+Function  
  ----- ------------  ---------------      ----- ------------  ---------------
     5     59.187632   1 C  s                51    -26.079473   2 C  s         
   143     25.959737   4 C  s               235    -26.080916   6 C  s         
    97    -14.304242   3 C  s               189    -14.304162   5 C  s         
   154      7.415727   4 C  py              245      6.809860   6 C  px        
    61     -6.398232   2 C  px              326      6.153477   9 H  s         
 
 Vector   49  Occ=0.000000D+00  E= 1.754184D-01
              MO Center=  2.5D-02, -3.9D-01, -1.7D-04, r^2= 1.1D+01
   Bfn.  Coefficient  Atom+Function         Bfn.  Coefficient  Atom+Function  
  ----- ------------  ---------------      ----- ------------  ---------------
   335      1.104360   9 H  pz              312      1.078755   8 H  pz        
   358      1.078801  10 H  pz              289      0.973623   7 H  pz        
   381      0.973660  11 H  pz               17      0.954906   1 C  pz        
    63     -0.881861   2 C  pz              247     -0.881886   6 C  pz        
   106     -0.846404   3 C  pz              198     -0.846447   5 C  pz        
 
 Vector   50  Occ=0.000000D+00  E= 1.863278D-01
              MO Center=  3.5D-02, -5.5D-01,  9.9D-05, r^2= 1.5D+01
   Bfn.  Coefficient  Atom+Function         Bfn.  Coefficient  Atom+Function  
  ----- ------------  ---------------      ----- ------------  ---------------
     5     15.516922   1 C  s                97     -7.233593   3 C  s         
   189     -7.233584   5 C  s                51     -4.629838   2 C  s         
   235     -4.630318   6 C  s               325      4.360191   9 H  s         
   154      4.015294   4 C  py               62     -3.991189   2 C  py        
   246     -3.770082   6 C  py              302      3.250075   8 H  s         
 
 Vector   51  Occ=0.000000D+00  E= 1.980119D-01
              MO Center= -2.9D-02,  4.7D-01,  3.4D-04, r^2= 2.3D+01
   Bfn.  Coefficient  Atom+Function         Bfn.  Coefficient  Atom+Function  
  ----- ------------  ---------------      ----- ------------  ---------------
    51     44.472879   2 C  s               235    -44.502465   6 C  s         
    97     25.298335   3 C  s               189    -25.289878   5 C  s         
    15     18.649126   1 C  px              153     16.908323   4 C  px        
   302    -13.949460   8 H  s               348     13.946795  10 H  s         
   200      9.064553   5 C  py              108     -8.345597   3 C  py        
 
 Vector   52  Occ=0.000000D+00  E= 1.984652D-01
              MO Center=  4.5D-02, -7.3D-01, -5.1D-04, r^2= 2.3D+01
   Bfn.  Coefficient  Atom+Function         Bfn.  Coefficient  Atom+Function  
  ----- ------------  ---------------      ----- ------------  ---------------
   143     61.336051   4 C  s                51    -34.576824   2 C  s         
   235    -34.540146   6 C  s               325    -16.914382   9 H  s         
    62     14.742182   2 C  py              246     14.471727   6 C  py        
   200     13.786040   5 C  py              108     12.580710   3 C  py        
     5    -11.700169   1 C  s               279     11.202990   7 H  s         
 
 Vector   53  Occ=0.000000D+00  E= 2.154089D-01
              MO Center=  8.1D-02, -1.3D+00, -1.6D-05, r^2= 1.6D+01
   Bfn.  Coefficient  Atom+Function         Bfn.  Coefficient  Atom+Function  
  ----- ------------  ---------------      ----- ------------  ---------------
    97     13.877527   3 C  s               189    -13.877944   5 C  s         
   153      6.666714   4 C  px               96      6.512811   3 C  s         
   188     -6.513186   5 C  s               279     -5.158024   7 H  s         
   371      5.158771  11 H  s               246     -4.754068   6 C  py        
   303      4.590400   8 H  s               349     -4.590581  10 H  s         
 
 Vector   54  Occ=0.000000D+00  E= 2.183242D-01
              MO Center=  1.8D-02, -2.9D-01, -1.8D-04, r^2= 1.5D+01
   Bfn.  Coefficient  Atom+Function         Bfn.  Coefficient  Atom+Function  
  ----- ------------  ---------------      ----- ------------  ---------------
   143     25.475804   4 C  s                51    -17.625933   2 C  s         
   235    -17.622952   6 C  s                 5     15.890367   1 C  s         
    16     -6.402978   1 C  py              325     -6.010210   9 H  s         
    62      4.821490   2 C  py              246      4.715803   6 C  py        
   279      3.718535   7 H  s               371      3.717620  11 H  s         
 
 Vector   55  Occ=0.000000D+00  E= 2.190430D-01
              MO Center=  1.2D-02, -1.9D-01,  1.0D-03, r^2= 1.5D+01
   Bfn.  Coefficient  Atom+Function         Bfn.  Coefficient  Atom+Function  
  ----- ------------  ---------------      ----- ------------  ---------------
    51     19.689874   2 C  s               235    -19.691915   6 C  s         
   108     -8.509022   3 C  py              200      8.137560   5 C  py        
    15      7.344333   1 C  px              302     -6.912729   8 H  s         
   348      6.912705  10 H  s               153      5.866285   4 C  px        
   246     -3.861928   6 C  py               62      3.751400   2 C  py        
 
 Vector   56  Occ=0.000000D+00  E= 2.301225D-01
              MO Center= -1.5D-02,  2.4D-01,  2.0D-03, r^2= 1.8D+01
   Bfn.  Coefficient  Atom+Function         Bfn.  Coefficient  Atom+Function  
  ----- ------------  ---------------      ----- ------------  ---------------
   199      4.956379   5 C  px              107      4.687525   3 C  px        
   153     -3.750331   4 C  px               50     -3.357168   2 C  s         
   234      3.357724   6 C  s               303      3.125705   8 H  s         
   349     -3.126483  10 H  s                15     -2.715323   1 C  px        
   108      2.425239   3 C  py               28      1.828439   1 C  d -2      
 
 Vector   57  Occ=0.000000D+00  E= 2.311990D-01
              MO Center= -1.3D-04,  2.0D-03, -3.8D-03, r^2= 1.6D+01
   Bfn.  Coefficient  Atom+Function         Bfn.  Coefficient  Atom+Function  
  ----- ------------  ---------------      ----- ------------  ---------------
   106      2.148948   3 C  pz              198     -2.148938   5 C  pz        
    60      2.040200   2 C  pz              244     -2.040226   6 C  pz        
   312     -1.819328   8 H  pz              358      1.819283  10 H  pz        
   289     -1.719696   7 H  pz              381      1.719738  11 H  pz        
   169     -1.382875   4 C  d  1             31     -1.243369   1 C  d  1      
 
 Vector   58  Occ=0.000000D+00  E= 2.353274D-01
              MO Center= -1.5D-02,  2.3D-01,  5.0D-04, r^2= 1.6D+01
   Bfn.  Coefficient  Atom+Function         Bfn.  Coefficient  Atom+Function  
  ----- ------------  ---------------      ----- ------------  ---------------
   143     15.016384   4 C  s                51    -10.553855   2 C  s         
   235    -10.568611   6 C  s               107     -8.198766   3 C  px        
   199      7.764359   5 C  px               61      5.444260   2 C  px        
   245     -5.321203   6 C  px              303     -4.405799   8 H  s         
   349     -4.403437  10 H  s                 5      4.251266   1 C  s         
 
 Vector   59  Occ=0.000000D+00  E= 2.367318D-01
              MO Center= -7.3D-03,  1.1D-01,  9.4D-04, r^2= 1.8D+01
   Bfn.  Coefficient  Atom+Function         Bfn.  Coefficient  Atom+Function  
  ----- ------------  ---------------      ----- ------------  ---------------
    97    -33.002681   3 C  s               189     33.002246   5 C  s         
    51     31.540824   2 C  s               235    -31.535338   6 C  s         
    96    -14.538544   3 C  s               188     14.539647   5 C  s         
   279     10.744313   7 H  s               302    -10.694313   8 H  s         
   348     10.694628  10 H  s               371    -10.745638  11 H  s         
 
 Vector   60  Occ=0.000000D+00  E= 2.434286D-01
              MO Center=  2.9D-03, -4.5D-02, -4.7D-04, r^2= 1.5D+01
   Bfn.  Coefficient  Atom+Function         Bfn.  Coefficient  Atom+Function  
  ----- ------------  ---------------      ----- ------------  ---------------
   152      3.424906   4 C  pz               14     -3.001609   1 C  pz        
   289      2.170334   7 H  pz              381      2.170327  11 H  pz        
   335     -2.126357   9 H  pz              261      1.993754   6 C  d  1      
    77     -1.979835   2 C  d  1             63     -1.599161   2 C  pz        
   247     -1.599224   6 C  pz              155      1.370596   4 C  pz        
 
 Vector   61  Occ=0.000000D+00  E= 2.595842D-01
              MO Center=  3.6D-02, -5.8D-01,  6.3D-05, r^2= 1.7D+01
   Bfn.  Coefficient  Atom+Function         Bfn.  Coefficient  Atom+Function  
  ----- ------------  ---------------      ----- ------------  ---------------
     5      8.372405   1 C  s               108     -6.533391   3 C  py        
   200     -5.955342   5 C  py              143     -5.113653   4 C  s         
   303     -5.081020   8 H  s               349     -5.081328  10 H  s         
   199      4.983896   5 C  px              197     -4.841041   5 C  py        
   105     -4.730900   3 C  py              107     -4.196158   3 C  px        
 
 Vector   62  Occ=0.000000D+00  E= 2.620276D-01
              MO Center=  7.0D-02, -1.1D+00, -5.2D-05, r^2= 1.7D+01
   Bfn.  Coefficient  Atom+Function         Bfn.  Coefficient  Atom+Function  
  ----- ------------  ---------------      ----- ------------  ---------------
     5     19.263152   1 C  s               154     15.486930   4 C  py        
   143     15.206597   4 C  s                51    -14.690753   2 C  s         
   235    -14.688415   6 C  s               326      9.253766   9 H  s         
     4      5.908344   1 C  s               108     -4.873271   3 C  py        
    97     -4.656082   3 C  s               189     -4.657900   5 C  s         
 
 Vector   63  Occ=0.000000D+00  E= 2.678102D-01
              MO Center= -2.8D-02,  4.4D-01,  5.7D-05, r^2= 2.0D+01
   Bfn.  Coefficient  Atom+Function         Bfn.  Coefficient  Atom+Function  
  ----- ------------  ---------------      ----- ------------  ---------------
    51     20.101463   2 C  s               235    -20.102849   6 C  s         
    97    -11.845248   3 C  s               189     11.844422   5 C  s         
    61     11.005696   2 C  px              245     10.258125   6 C  px        
    96     -8.762750   3 C  s               188      8.762369   5 C  s         
   279      8.775801   7 H  s               371     -8.775397  11 H  s         
 
 Vector   64  Occ=0.000000D+00  E= 2.747608D-01
              MO Center= -1.1D-03,  1.8D-02,  6.9D-05, r^2= 1.4D+01
   Bfn.  Coefficient  Atom+Function         Bfn.  Coefficient  Atom+Function  
  ----- ------------  ---------------      ----- ------------  ---------------
   143      8.853788   4 C  s                 5      8.423741   1 C  s         
   154      5.684850   4 C  py              279     -5.573835   7 H  s         
   371     -5.573946  11 H  s               302     -4.659604   8 H  s         
   348     -4.660152  10 H  s               325     -4.457537   9 H  s         
    16     -4.047428   1 C  py              246      3.256838   6 C  py        
 
 Vector   65  Occ=0.000000D+00  E= 2.828347D-01
              MO Center= -1.2D-02,  1.9D-01, -1.8D-05, r^2= 1.6D+01
   Bfn.  Coefficient  Atom+Function         Bfn.  Coefficient  Atom+Function  
  ----- ------------  ---------------      ----- ------------  ---------------
    12      9.543033   1 C  px               97      8.893105   3 C  s         
   189     -8.893107   5 C  s               302      8.048251   8 H  s         
   348     -8.048388  10 H  s                51     -7.988741   2 C  s         
   235      7.988963   6 C  s               199      7.664846   5 C  px        
   107      7.200888   3 C  px              150      6.147862   4 C  px        
 
 Vector   66  Occ=0.000000D+00  E= 2.955063D-01
              MO Center= -4.3D-03,  6.9D-02, -2.7D-05, r^2= 1.6D+01
   Bfn.  Coefficient  Atom+Function         Bfn.  Coefficient  Atom+Function  
  ----- ------------  ---------------      ----- ------------  ---------------
    63      3.204477   2 C  pz              109     -3.193371   3 C  pz        
   201      3.193755   5 C  pz              247     -3.204673   6 C  pz        
   289     -2.283126   7 H  pz              381      2.283102  11 H  pz        
    60      2.256879   2 C  pz              244     -2.256865   6 C  pz        
   312      2.265096   8 H  pz              358     -2.265201  10 H  pz        
 
 Vector   67  Occ=0.000000D+00  E= 2.963519D-01
              MO Center= -6.0D-02,  9.5D-01,  4.1D-04, r^2= 1.4D+01
   Bfn.  Coefficient  Atom+Function         Bfn.  Coefficient  Atom+Function  
  ----- ------------  ---------------      ----- ------------  ---------------
     4     10.327109   1 C  s                59     -5.723795   2 C  py        
     5      5.634078   1 C  s               243     -5.611711   6 C  py        
   105     -5.514701   3 C  py              197     -5.131534   5 C  py        
    16      4.251868   1 C  py              279     -4.177156   7 H  s         
   371     -4.177194  11 H  s               325     -3.952499   9 H  s         
 
 Vector   68  Occ=0.000000D+00  E= 3.080693D-01
              MO Center=  1.7D-02, -2.6D-01, -4.6D-04, r^2= 1.5D+01
   Bfn.  Coefficient  Atom+Function         Bfn.  Coefficient  Atom+Function  
  ----- ------------  ---------------      ----- ------------  ---------------
   155      5.181931   4 C  pz               14      4.354014   1 C  pz        
   109     -3.742409   3 C  pz              201     -3.742247   5 C  pz        
   335     -2.707010   9 H  pz               60     -2.044592   2 C  pz        
   244     -2.044719   6 C  pz               17      1.841882   1 C  pz        
   152      1.844970   4 C  pz               29     -1.720313   1 C  d -1      
 
 Vector   69  Occ=0.000000D+00  E= 3.149274D-01
              MO Center=  6.4D-03, -1.0D-01,  1.7D-05, r^2= 9.1D+00
   Bfn.  Coefficient  Atom+Function         Bfn.  Coefficient  Atom+Function  
  ----- ------------  ---------------      ----- ------------  ---------------
   261      1.272289   6 C  d  1             77      1.156122   2 C  d  1      
   169     -1.105345   4 C  d  1             75     -1.000285   2 C  d -1      
   259      0.847144   6 C  d -1            289     -0.712926   7 H  pz        
   381      0.712965  11 H  pz               31      0.643497   1 C  d  1      
    60     -0.392014   2 C  pz              244      0.391746   6 C  pz        
 
 Vector   70  Occ=0.000000D+00  E= 3.282531D-01
              MO Center=  3.8D-02, -6.0D-01,  1.0D-04, r^2= 1.5D+01
   Bfn.  Coefficient  Atom+Function         Bfn.  Coefficient  Atom+Function  
  ----- ------------  ---------------      ----- ------------  ---------------
   142     12.392966   4 C  s                96      8.990607   3 C  s         
   188      8.990700   5 C  s               151     -6.795648   4 C  py        
   325     -5.828554   9 H  s                 4     -5.606508   1 C  s         
     5      5.219865   1 C  s               334     -4.994478   9 H  py        
   302     -4.421069   8 H  s               348     -4.421380  10 H  s         
 
 Vector   71  Occ=0.000000D+00  E= 3.347467D-01
              MO Center= -1.8D-03,  2.9D-02,  1.7D-04, r^2= 7.7D+00
   Bfn.  Coefficient  Atom+Function         Bfn.  Coefficient  Atom+Function  
  ----- ------------  ---------------      ----- ------------  ---------------
   289      2.047326   7 H  pz              381      2.047223  11 H  pz        
   335      1.824682   9 H  pz               14     -1.751378   1 C  pz        
   155     -1.742139   4 C  pz               63     -1.574279   2 C  pz        
   247     -1.574257   6 C  pz               77     -1.510202   2 C  d  1      
   261      1.407248   6 C  d  1            106     -1.282620   3 C  pz        
 
 Vector   72  Occ=0.000000D+00  E= 3.433054D-01
              MO Center=  2.6D-02, -4.0D-01, -4.5D-03, r^2= 1.2D+01
   Bfn.  Coefficient  Atom+Function         Bfn.  Coefficient  Atom+Function  
  ----- ------------  ---------------      ----- ------------  ---------------
   169      3.350592   4 C  d  1             31      2.633371   1 C  d  1      
   312     -2.502901   8 H  pz              358      2.503102  10 H  pz        
   123      2.242952   3 C  d  1            215      2.198701   5 C  d  1      
   106     -1.821070   3 C  pz              198      1.821032   5 C  pz        
   289     -1.402102   7 H  pz              381      1.402293  11 H  pz        
 
 Vector   73  Occ=0.000000D+00  E= 3.450897D-01
              MO Center= -3.6D-02,  5.7D-01, -2.4D-03, r^2= 1.2D+01
   Bfn.  Coefficient  Atom+Function         Bfn.  Coefficient  Atom+Function  
  ----- ------------  ---------------      ----- ------------  ---------------
   143     23.719692   4 C  s               325    -12.924934   9 H  s         
   279     11.992854   7 H  s               371     11.988485  11 H  s         
    51    -11.759954   2 C  s               235    -11.750701   6 C  s         
     5     -7.860589   1 C  s               197     -6.953355   5 C  py        
   105     -6.844048   3 C  py              243     -6.073578   6 C  py        
 
 Vector   74  Occ=0.000000D+00  E= 3.477188D-01
              MO Center=  9.6D-03, -1.5D-01,  4.1D-03, r^2= 1.2D+01
   Bfn.  Coefficient  Atom+Function         Bfn.  Coefficient  Atom+Function  
  ----- ------------  ---------------      ----- ------------  ---------------
    51     21.027707   2 C  s               235    -21.028759   6 C  s         
   302    -11.909901   8 H  s               348     11.907943  10 H  s         
    97     11.052665   3 C  s               189    -11.051101   5 C  s         
   279     -9.841196   7 H  s               371      9.846115  11 H  s         
    12     -8.139930   1 C  px              150     -6.994540   4 C  px        
 
 Vector   75  Occ=0.000000D+00  E= 3.480180D-01
              MO Center=  3.5D-02, -5.6D-01,  3.4D-03, r^2= 1.3D+01
   Bfn.  Coefficient  Atom+Function         Bfn.  Coefficient  Atom+Function  
  ----- ------------  ---------------      ----- ------------  ---------------
   155     -3.840879   4 C  pz               17      3.610531   1 C  pz        
   109      3.428146   3 C  pz              201      3.428128   5 C  pz        
    63     -3.293040   2 C  pz              247     -3.292959   6 C  pz        
   152     -3.017967   4 C  pz              213     -2.317789   5 C  d -1      
   289      2.247167   7 H  pz              381      2.247497  11 H  pz        
 
 Vector   76  Occ=0.000000D+00  E= 3.528192D-01
              MO Center=  3.1D-02, -4.9D-01, -2.0D-04, r^2= 1.4D+01
   Bfn.  Coefficient  Atom+Function         Bfn.  Coefficient  Atom+Function  
  ----- ------------  ---------------      ----- ------------  ---------------
    17      6.476375   1 C  pz               63     -5.946732   2 C  pz        
   247     -5.946653   6 C  pz              109      5.227319   3 C  pz        
   201      5.227264   5 C  pz              155     -4.965825   4 C  pz        
   335      3.903987   9 H  pz               14      3.843694   1 C  pz        
   167      3.008187   4 C  d -1             60     -2.704099   2 C  pz        
 
 Vector   77  Occ=0.000000D+00  E= 3.546143D-01
              MO Center= -2.0D-02,  3.1D-01, -6.4D-04, r^2= 1.5D+01
   Bfn.  Coefficient  Atom+Function         Bfn.  Coefficient  Atom+Function  
  ----- ------------  ---------------      ----- ------------  ---------------
     5     31.103747   1 C  s               143     16.254026   4 C  s         
    51    -15.923703   2 C  s               235    -15.926394   6 C  s         
   151    -11.028281   4 C  py               50      7.610127   2 C  s         
   234      7.609564   6 C  s               196     -7.446234   5 C  px        
    13      7.322186   1 C  py              104      7.017520   3 C  px        
 
 Vector   78  Occ=0.000000D+00  E= 3.600257D-01
              MO Center= -4.9D-02,  7.8D-01,  2.3D-04, r^2= 1.3D+01
   Bfn.  Coefficient  Atom+Function         Bfn.  Coefficient  Atom+Function  
  ----- ------------  ---------------      ----- ------------  ---------------
   289      3.411038   7 H  pz              381     -3.410983  11 H  pz        
    60      3.153844   2 C  pz              244     -3.153848   6 C  pz        
   121     -3.104110   3 C  d -1             77     -3.063013   2 C  d  1      
   259      3.050534   6 C  d -1            213      2.805939   5 C  d -1      
   106     -2.733351   3 C  pz              198      2.733525   5 C  pz        
 
 Vector   79  Occ=0.000000D+00  E= 3.685686D-01
              MO Center=  3.6D-02, -5.8D-01, -1.6D-04, r^2= 1.3D+01
   Bfn.  Coefficient  Atom+Function         Bfn.  Coefficient  Atom+Function  
  ----- ------------  ---------------      ----- ------------  ---------------
    96     10.679014   3 C  s               188     10.680116   5 C  s         
   104     -8.575254   3 C  px              196      8.564294   5 C  px        
   142     -7.465846   4 C  s                 5      6.804487   1 C  s         
   212      5.432803   5 C  d -2            258      5.349552   6 C  d -2      
   120     -5.263084   3 C  d -2            242     -5.106499   6 C  px        
 
 Vector   80  Occ=0.000000D+00  E= 3.722446D-01
              MO Center=  1.8D-02, -2.9D-01, -2.0D-04, r^2= 1.3D+01
   Bfn.  Coefficient  Atom+Function         Bfn.  Coefficient  Atom+Function  
  ----- ------------  ---------------      ----- ------------  ---------------
    97      9.632723   3 C  s               189     -9.633601   5 C  s         
    50      8.959111   2 C  s               234     -8.959317   6 C  s         
   279     -5.235622   7 H  s               357      5.223662  10 H  py        
   371      5.234104  11 H  s               311     -5.093732   8 H  py        
   212     -4.866040   5 C  d -2             51     -4.740065   2 C  s         
 
 Vector   81  Occ=0.000000D+00  E= 3.819528D-01
              MO Center=  3.7D-02, -5.9D-01, -1.5D-05, r^2= 1.6D+01
   Bfn.  Coefficient  Atom+Function         Bfn.  Coefficient  Atom+Function  
  ----- ------------  ---------------      ----- ------------  ---------------
   166      9.062876   4 C  d -2            333      7.100313   9 H  px        
   150     -6.660620   4 C  px              216     -6.522079   5 C  d  2      
   124      6.053996   3 C  d  2            279      6.043765   7 H  s         
   371     -6.043353  11 H  s               310      5.103865   8 H  px        
   356      5.052259  10 H  px               96     -4.813446   3 C  s         
 
 Vector   82  Occ=0.000000D+00  E= 3.934458D-01
              MO Center= -2.8D-02,  4.5D-01,  2.0D-04, r^2= 1.5D+01
   Bfn.  Coefficient  Atom+Function         Bfn.  Coefficient  Atom+Function  
  ----- ------------  ---------------      ----- ------------  ---------------
    12     12.251805   1 C  px               51    -10.856741   2 C  s         
   235     10.855874   6 C  s                78     -9.103603   2 C  d  2      
   262      8.752995   6 C  d  2             15     -6.882001   1 C  px        
   216      6.695027   5 C  d  2            124     -5.872308   3 C  d  2      
   153     -5.863018   4 C  px              150      5.717947   4 C  px        
 
 Vector   83  Occ=0.000000D+00  E= 3.961748D-01
              MO Center= -5.2D-02,  8.2D-01,  2.6D-04, r^2= 1.2D+01
   Bfn.  Coefficient  Atom+Function         Bfn.  Coefficient  Atom+Function  
  ----- ------------  ---------------      ----- ------------  ---------------
   152     -7.555720   4 C  pz              106      7.350510   3 C  pz        
   198      7.350328   5 C  pz               60     -6.454324   2 C  pz        
   244     -6.454209   6 C  pz              167     -6.352554   4 C  d -1      
   215      5.125501   5 C  d  1            123     -4.720615   3 C  d  1      
    14      4.521386   1 C  pz              259      4.025687   6 C  d -1      
 
 Vector   84  Occ=0.000000D+00  E= 4.018031D-01
              MO Center= -3.3D-02,  5.3D-01, -7.7D-04, r^2= 1.5D+01
   Bfn.  Coefficient  Atom+Function         Bfn.  Coefficient  Atom+Function  
  ----- ------------  ---------------      ----- ------------  ---------------
     5     51.524692   1 C  s                51    -19.259417   2 C  s         
   235    -19.262894   6 C  s                97    -17.342568   3 C  s         
   189    -17.343045   5 C  s               143     10.738299   4 C  s         
   142    -10.314977   4 C  s                 4     -9.824610   1 C  s         
   325      8.243521   9 H  s                50     -7.945473   2 C  s         
 
 Vector   85  Occ=0.000000D+00  E= 4.054155D-01
              MO Center= -6.0D-03,  9.6D-02, -7.3D-05, r^2= 1.3D+01
   Bfn.  Coefficient  Atom+Function         Bfn.  Coefficient  Atom+Function  
  ----- ------------  ---------------      ----- ------------  ---------------
     5     33.995031   1 C  s               143     18.358205   4 C  s         
    51    -13.438311   2 C  s               235    -13.437152   6 C  s         
    96      9.792524   3 C  s               188      9.793015   5 C  s         
    97     -7.431648   3 C  s               189     -7.431894   5 C  s         
   262      6.995136   6 C  d  2             78      6.817626   2 C  d  2      
 
 Vector   86  Occ=0.000000D+00  E= 4.126842D-01
[...]
     Occ.   15 beta  a   ---  Virt.   21 beta  a   -0.10431 X
     Occ.   19 beta  a   ---  Virt.   24 beta  a   -0.22551 X
     Occ.   19 beta  a   ---  Virt.   29 beta  a    0.05122 X
     Occ.   20 beta  a   ---  Virt.   22 beta  a    0.14801 X
  ----------------------------------------------------------------------------
  Root  27         a              0.251891532 a.u.                6.8543 eV 
  <S2> =   1.6630
  ----------------------------------------------------------------------------
     Transition Moments    X -0.00001   Y  0.00000   Z  0.24408
     Transition Moments   XX  0.00005  XY -0.00008  XZ -0.01052
     Transition Moments   YY  0.00013  YZ  0.16835  ZZ  0.00003
     Dipole Oscillator Strength                    0.0100044940
     Electric Quadrupole                           0.0000000024
     Magnetic Dipole                               0.0000000307
     Total Oscillator Strength                     0.0100045271
 
     Occ.   19 alpha a   ---  Virt.   26 alpha a    0.98170 X
     Occ.   19 alpha a   ---  Virt.   35 alpha a   -0.07110 X
     Occ.   19 alpha a   ---  Virt.   36 alpha a   -0.07353 X
     Occ.   20 alpha a   ---  Virt.   25 alpha a    0.12035 X
     Occ.   20 beta  a   ---  Virt.   26 beta  a    0.05003 X
  ----------------------------------------------------------------------------
  Root  28         a              0.252750099 a.u.                6.8777 eV 
  <S2> =   1.8926
  ----------------------------------------------------------------------------
     Transition Moments    X -0.00003   Y -0.00001   Z  0.00004
     Transition Moments   XX -0.00001  XY  0.00002  XZ -0.39087
     Transition Moments   YY -0.00007  YZ -0.02462  ZZ -0.00002
     Dipole Oscillator Strength                    0.0000000005
     Electric Quadrupole                           0.0000000132
     Magnetic Dipole                               0.0000000097
     Total Oscillator Strength                     0.0000000234
 
     Occ.   19 alpha a   ---  Virt.   25 alpha a    0.23742 X
     Occ.   20 alpha a   ---  Virt.   26 alpha a    0.96271 X
     Occ.   20 alpha a   ---  Virt.   35 alpha a   -0.06174 X
     Occ.   20 alpha a   ---  Virt.   36 alpha a   -0.06565 X
     Occ.   19 beta  a   ---  Virt.   26 beta  a   -0.06669 X
  ----------------------------------------------------------------------------
  Root  29         a              0.254090456 a.u.                6.9142 eV 
  <S2> =   1.6146
  ----------------------------------------------------------------------------
     Transition Moments    X  0.00004   Y -0.00002   Z  0.00000
     Transition Moments   XX -0.00003  XY  0.00005  XZ -0.49312
     Transition Moments   YY -0.00011  YZ -0.03107  ZZ -0.00003
     Dipole Oscillator Strength                    0.0000000003
     Electric Quadrupole                           0.0000000213
     Magnetic Dipole                               0.0000000109
     Total Oscillator Strength                     0.0000000326
 
     Occ.   20 alpha a   ---  Virt.   26 alpha a    0.07108 X
     Occ.   19 beta  a   ---  Virt.   26 beta  a    0.98520 X
     Occ.   19 beta  a   ---  Virt.   35 beta  a   -0.05767 X
     Occ.   19 beta  a   ---  Virt.   36 beta  a   -0.07412 X
     Occ.   20 beta  a   ---  Virt.   25 beta  a    0.09538 X
  ----------------------------------------------------------------------------
  Root  30         a              0.254811540 a.u.                6.9338 eV 
  <S2> =   0.7702
  ----------------------------------------------------------------------------
     Transition Moments    X -1.50004   Y -0.09435   Z  0.00002
     Transition Moments   XX -0.02364  XY  0.18766  XZ -0.00003
     Transition Moments   YY  0.02390  YZ  0.00002  ZZ  0.00002
     Dipole Oscillator Strength                    0.3837476286
     Electric Quadrupole                           0.0000000032
     Magnetic Dipole                               0.0000000223
     Total Oscillator Strength                     0.3837476540
 
     Occ.   19 alpha a   ---  Virt.   22 alpha a   -0.37870 X
     Occ.   19 alpha a   ---  Virt.   22 alpha a    0.05297 Y
     Occ.   20 alpha a   ---  Virt.   23 alpha a    0.42546 X
     Occ.   20 alpha a   ---  Virt.   23 alpha a   -0.05096 Y
     Occ.   20 alpha a   ---  Virt.   29 alpha a   -0.13975 X
     Occ.   21 alpha a   ---  Virt.   25 alpha a    0.07732 X
     Occ.   21 alpha a   ---  Virt.   27 alpha a   -0.39819 X
     Occ.   13 beta  a   ---  Virt.   21 beta  a    0.12852 X
     Occ.   15 beta  a   ---  Virt.   21 beta  a    0.26809 X
     Occ.   19 beta  a   ---  Virt.   24 beta  a    0.49631 X
     Occ.   19 beta  a   ---  Virt.   29 beta  a   -0.13843 X
     Occ.   20 beta  a   ---  Virt.   22 beta  a   -0.34733 X
     Occ.   20 beta  a   ---  Virt.   22 beta  a    0.05596 Y
  ----------------------------------------------------------------------------
  Root  31         a              0.255523123 a.u.                6.9531 eV 
  <S2> =   0.8004
  ----------------------------------------------------------------------------
     Transition Moments    X -0.04004   Y  0.63872   Z  0.00000
     Transition Moments   XX  0.64365  XY -0.07867  XZ -0.00002
     Transition Moments   YY  1.88756  YZ  0.00003  ZZ  0.14665
     Dipole Oscillator Strength                    0.0697698416
     Electric Quadrupole                           0.0000000720
     Magnetic Dipole                               0.0000000000
     Total Oscillator Strength                     0.0697699136
 
     Occ.   19 alpha a   ---  Virt.   23 alpha a   -0.10553 X
     Occ.   20 alpha a   ---  Virt.   22 alpha a   -0.11555 X
     Occ.   21 alpha a   ---  Virt.   26 alpha a   -0.18499 X
     Occ.   21 alpha a   ---  Virt.   28 alpha a    0.90946 X
     Occ.   21 alpha a   ---  Virt.   30 alpha a    0.12779 X
     Occ.   21 alpha a   ---  Virt.   31 alpha a    0.16274 X
     Occ.   21 alpha a   ---  Virt.   48 alpha a   -0.05644 X
     Occ.   16 beta  a   ---  Virt.   21 beta  a   -0.18929 X
     Occ.   19 beta  a   ---  Virt.   22 beta  a   -0.11027 X
     Occ.   20 beta  a   ---  Virt.   24 beta  a   -0.09624 X
  ----------------------------------------------------------------------------
  Root  32         a              0.260876299 a.u.                7.0988 eV 
  <S2> =   0.7993
  ----------------------------------------------------------------------------
     Transition Moments    X  0.00001   Y -0.00002   Z  0.09603
     Transition Moments   XX -0.00000  XY -0.00000  XZ -0.04460
     Transition Moments   YY -0.00005  YZ  0.70771  ZZ -0.00000
     Dipole Oscillator Strength                    0.0016036599
     Electric Quadrupole                           0.0000000475
     Magnetic Dipole                               0.0000000337
     Total Oscillator Strength                     0.0016037411
 
     Occ.   21 alpha a   ---  Virt.   29 alpha a   -0.97947 X
     Occ.   21 alpha a   ---  Virt.   33 alpha a   -0.18018 X
  ----------------------------------------------------------------------------
  Root  33         a              0.265322250 a.u.                7.2198 eV 
  <S2> =   1.7802
  ----------------------------------------------------------------------------
     Transition Moments    X -0.00001   Y -0.00001   Z  0.00000
     Transition Moments   XX  0.00006  XY -0.00002  XZ -0.54601
     Transition Moments   YY  0.00003  YZ -0.03441  ZZ  0.00004
     Dipole Oscillator Strength                    0.0000000000
     Electric Quadrupole                           0.0000000298
     Magnetic Dipole                               0.0000000006
     Total Oscillator Strength                     0.0000000304
 
     Occ.   20 beta  a   ---  Virt.   27 beta  a   -0.99105 X
     Occ.   20 beta  a   ---  Virt.   38 beta  a    0.09664 X
  ----------------------------------------------------------------------------
  Root  34         a              0.267205380 a.u.                7.2710 eV 
  <S2> =   0.8235
  ----------------------------------------------------------------------------
     Transition Moments    X  0.07588   Y -1.20561   Z  0.00000
     Transition Moments   XX  0.03975  XY -0.04057  XZ  0.00001
     Transition Moments   YY  0.68142  YZ  0.00005  ZZ  0.04375
     Dipole Oscillator Strength                    0.2599479343
     Electric Quadrupole                           0.0000000140
     Magnetic Dipole                               0.0000000000
     Total Oscillator Strength                     0.2599479483
 
     Occ.   17 alpha a   ---  Virt.   23 alpha a   -0.08616 X
     Occ.   19 alpha a   ---  Virt.   23 alpha a    0.30451 X
     Occ.   19 alpha a   ---  Virt.   29 alpha a    0.16228 X
     Occ.   20 alpha a   ---  Virt.   22 alpha a    0.22373 X
     Occ.   21 alpha a   ---  Virt.   28 alpha a    0.30186 X
     Occ.   21 alpha a   ---  Virt.   30 alpha a   -0.41746 X
     Occ.   21 alpha a   ---  Virt.   31 alpha a    0.07818 X
     Occ.   14 beta  a   ---  Virt.   21 beta  a   -0.08926 X
     Occ.   16 beta  a   ---  Virt.   21 beta  a    0.50364 X
     Occ.   19 beta  a   ---  Virt.   22 beta  a    0.22464 X
     Occ.   20 beta  a   ---  Virt.   24 beta  a    0.30664 X
     Occ.   20 beta  a   ---  Virt.   29 beta  a    0.35292 X
  ----------------------------------------------------------------------------
  Root  35         a              0.270933910 a.u.                7.3725 eV 
  <S2> =   2.7169
  ----------------------------------------------------------------------------
     Transition Moments    X  0.00001   Y  0.00001   Z  0.00950
     Transition Moments   XX -0.00001  XY  0.00001  XZ -0.00868
     Transition Moments   YY -0.00001  YZ  0.13815  ZZ  0.00001
     Dipole Oscillator Strength                    0.0000162957
     Electric Quadrupole                           0.0000000020
     Magnetic Dipole                               0.0000000000
     Total Oscillator Strength                     0.0000162978
 
     Occ.   19 alpha a   ---  Virt.   28 alpha a   -0.05025 X
     Occ.   20 alpha a   ---  Virt.   27 alpha a   -0.78307 X
     Occ.   20 alpha a   ---  Virt.   38 alpha a    0.08695 X
     Occ.   19 beta  a   ---  Virt.   27 beta  a    0.59427 X
     Occ.   19 beta  a   ---  Virt.   38 beta  a   -0.06992 X
     Occ.   20 beta  a   ---  Virt.   28 beta  a    0.06199 X
     Occ.   20 beta  a   ---  Virt.   30 beta  a    0.06374 X
  ----------------------------------------------------------------------------
  Root  36         a              0.271331150 a.u.                7.3833 eV 
  <S2> =   2.7413
  ----------------------------------------------------------------------------
     Transition Moments    X -0.04780   Y -0.00305   Z  0.00000
     Transition Moments   XX -0.00326  XY  0.02686  XZ -0.00001
     Transition Moments   YY  0.00329  YZ  0.00004  ZZ  0.00003
     Dipole Oscillator Strength                    0.0004149485
     Electric Quadrupole                           0.0000000001
     Magnetic Dipole                               0.0000000018
     Total Oscillator Strength                     0.0004149503
 
     Occ.   17 alpha a   ---  Virt.   22 alpha a   -0.59837 X
     Occ.   17 alpha a   ---  Virt.   41 alpha a    0.05250 X
     Occ.   19 alpha a   ---  Virt.   32 alpha a    0.08405 X
     Occ.   20 alpha a   ---  Virt.   29 alpha a   -0.16051 X
     Occ.   20 alpha a   ---  Virt.   44 alpha a    0.22742 X
     Occ.   20 alpha a   ---  Virt.   47 alpha a   -0.17407 X
     Occ.   17 beta  a   ---  Virt.   22 beta  a    0.64433 X
     Occ.   17 beta  a   ---  Virt.   41 beta  a   -0.05442 X
     Occ.   19 beta  a   ---  Virt.   29 beta  a    0.10409 X
     Occ.   19 beta  a   ---  Virt.   44 beta  a   -0.20098 X
     Occ.   19 beta  a   ---  Virt.   47 beta  a    0.16689 X
     Occ.   20 beta  a   ---  Virt.   31 beta  a   -0.10237 X
  ----------------------------------------------------------------------------
  Root  37         a              0.271789337 a.u.                7.3958 eV 
  <S2> =   1.0791
  ----------------------------------------------------------------------------
     Transition Moments    X -0.03028   Y  0.48071   Z  0.00000
     Transition Moments   XX -1.03098  XY -0.11278  XZ  0.00000
     Transition Moments   YY  0.75205  YZ  0.00006  ZZ -0.23375
     Dipole Oscillator Strength                    0.0420358349
     Electric Quadrupole                           0.0000000867
     Magnetic Dipole                               0.0000000000
     Total Oscillator Strength                     0.0420359216
 
     Occ.   17 alpha a   ---  Virt.   23 alpha a    0.05790 X
     Occ.   19 alpha a   ---  Virt.   23 alpha a   -0.08143 X
     Occ.   21 alpha a   ---  Virt.   30 alpha a   -0.79485 X
     Occ.   21 alpha a   ---  Virt.   31 alpha a    0.20115 X
     Occ.   21 alpha a   ---  Virt.   35 alpha a   -0.07255 X
     Occ.   21 alpha a   ---  Virt.   40 alpha a    0.05630 X
     Occ.   14 beta  a   ---  Virt.   21 beta  a    0.06060 X
     Occ.   16 beta  a   ---  Virt.   21 beta  a   -0.17502 X
     Occ.   19 beta  a   ---  Virt.   22 beta  a   -0.05212 X
     Occ.   20 beta  a   ---  Virt.   24 beta  a   -0.08643 X
     Occ.   20 beta  a   ---  Virt.   29 beta  a   -0.50166 X
  ----------------------------------------------------------------------------
  Root  38         a              0.271916514 a.u.                7.3992 eV 
  <S2> =   0.8420
  ----------------------------------------------------------------------------
     Transition Moments    X -0.00001   Y  0.00007   Z -0.02692
     Transition Moments   XX -0.00015  XY -0.00007  XZ  0.05662
     Transition Moments   YY  0.00016  YZ -0.90123  ZZ -0.00005
     Dipole Oscillator Strength                    0.0001313768
     Electric Quadrupole                           0.0000000873
     Magnetic Dipole                               0.0000000033
     Total Oscillator Strength                     0.0001314674
 
     Occ.   20 alpha a   ---  Virt.   27 alpha a    0.58080 X
     Occ.   19 beta  a   ---  Virt.   27 beta  a    0.78276 X
     Occ.   19 beta  a   ---  Virt.   38 beta  a   -0.07347 X
     Occ.   20 beta  a   ---  Virt.   28 beta  a   -0.18997 X
  ----------------------------------------------------------------------------
  Root  39         a              0.272208317 a.u.                7.4072 eV 
  <S2> =   1.7260
  ----------------------------------------------------------------------------
     Transition Moments    X -0.00000   Y  0.00000   Z  0.00003
     Transition Moments   XX  0.00006  XY -0.00002  XZ -0.54916
     Transition Moments   YY  0.00001  YZ -0.03416  ZZ  0.00003
     Dipole Oscillator Strength                    0.0000000002
     Electric Quadrupole                           0.0000000325
     Magnetic Dipole                               0.0000000013
     Total Oscillator Strength                     0.0000000340
 
     Occ.   19 alpha a   ---  Virt.   27 alpha a   -0.99048 X
     Occ.   19 alpha a   ---  Virt.   38 alpha a    0.09607 X
  ----------------------------------------------------------------------------
  Root  40         a              0.272403650 a.u.                7.4125 eV 
  <S2> =   1.9352
  ----------------------------------------------------------------------------
     Transition Moments    X -0.00001   Y  0.00001   Z  0.03961
     Transition Moments   XX  0.00007  XY  0.00003  XZ -0.02402
     Transition Moments   YY  0.00002  YZ  0.38482  ZZ  0.00001
     Dipole Oscillator Strength                    0.0002849073
     Electric Quadrupole                           0.0000000160
     Magnetic Dipole                               0.0000000059
     Total Oscillator Strength                     0.0002849292
 
     Occ.   19 alpha a   ---  Virt.   28 alpha a   -0.11543 X
     Occ.   20 alpha a   ---  Virt.   27 alpha a    0.17225 X
     Occ.   17 beta  a   ---  Virt.   21 beta  a   -0.05446 X
     Occ.   19 beta  a   ---  Virt.   27 beta  a    0.11018 X
     Occ.   20 beta  a   ---  Virt.   28 beta  a    0.95887 X
     Occ.   20 beta  a   ---  Virt.   30 beta  a    0.05676 X
     Occ.   20 beta  a   ---  Virt.   32 beta  a    0.07377 X
     Occ.   20 beta  a   ---  Virt.   43 beta  a    0.07968 X
 
              Target root =      1
          Target symmetry = none
      Ground state energy =   -231.646312646576
        Excitation energy =      0.105906973704
     Excited state energy =   -231.540405672872
 
  stored tddft:energy   -231.540405672872     

 Task  times  cpu:     2913.4s     wall:     3006.1s
 
 
                                NWChem Input Module
                                -------------------
 
 
 Summary of allocated global arrays
-----------------------------------
  No active global arrays



                         GA Statistics for process    0
                         ------------------------------

       create   destroy   get      put      acc     scatter   gather  read&inc
calls: 9544     9544     9.77e+06 4.29e+06 2.10e+06 5660        0      253     
number of processes/call 1.33e+00 1.71e+00 1.91e+00 0.00e+00 0.00e+00
bytes total:             8.49e+10 1.16e+10 9.35e+10 6.26e+04 0.00e+00 2.02e+03
bytes remote:            6.14e+10 1.09e+09 8.92e+10 0.00e+00 0.00e+00 0.00e+00
Max memory consumed for GA by this process: 205086464 bytes
 
MA_summarize_allocated_blocks: starting scan ...
MA_summarize_allocated_blocks: scan completed: 0 heap blocks, 0 stack blocks
MA usage statistics:

	allocation statistics:
					      heap	     stack
					      ----	     -----
	current number of blocks	         0	         0
	maximum number of blocks	        20	        52
	current total bytes		         0	         0
	maximum total bytes		   1166000	  68276408
	maximum total K-bytes		      1166	     68277
	maximum total M-bytes		         2	        69
 
 
                                     CITATION
                                     --------
                Please cite the following reference when publishing
                           results obtained with NWChem:
 
                 M. Valiev, E.J. Bylaska, N. Govind, K. Kowalski,
              T.P. Straatsma, H.J.J. van Dam, D. Wang, J. Nieplocha,
                        E. Apra, T.L. Windus, W.A. de Jong
                 "NWChem: a comprehensive and scalable open-source
                  solution for large scale molecular simulations"
                      Comput. Phys. Commun. 181, 1477 (2010)
                           doi:10.1016/j.cpc.2010.04.018
 
                                      AUTHORS
                                      -------
          E. Apra, E. J. Bylaska, W. A. de Jong, N. Govind, K. Kowalski,
       T. P. Straatsma, M. Valiev, H. J. J. van Dam, D. Wang, T. L. Windus,
        J. Hammond, J. Autschbach, K. Bhaskaran-Nair, J. Brabec, K. Lopata,
    S. A. Fischer, S. Krishnamoorthy, M. Jacquelin, W. Ma, M. Klemm, O. Villa,
      Y. Chen, V. Anisimov, F. Aquino, S. Hirata, M. T. Hackler, V. Konjkov,
            D. Mejia-Rodriguez, T. Risthaus, M. Malagoli, A. Marenich,
   A. Otero-de-la-Roza, J. Mullin, P. Nichols, R. Peverati, J. Pittner, Y. Zhao,
        P.-D. Fan, A. Fonari, M. J. Williamson, R. J. Harrison, J. R. Rehr,
      M. Dupuis, D. Silverstein, D. M. A. Smith, J. Nieplocha, V. Tipparaju,
    M. Krishnan, B. E. Van Kuiken, A. Vazquez-Mayagoitia, L. Jensen, M. Swart,
      Q. Wu, T. Van Voorhis, A. A. Auer, M. Nooijen, L. D. Crosby, E. Brown,
      G. Cisneros, G. I. Fann, H. Fruchtl, J. Garza, K. Hirao, R. A. Kendall,
      J. A. Nichols, K. Tsemekhman, K. Wolinski, J. Anchell, D. E. Bernholdt,
      P. Borowski, T. Clark, D. Clerc, H. Dachsel, M. J. O. Deegan, K. Dyall,
    D. Elwood, E. Glendening, M. Gutowski, A. C. Hess, J. Jaffe, B. G. Johnson,
     J. Ju, R. Kobayashi, R. Kutteh, Z. Lin, R. Littlefield, X. Long, B. Meng,
      T. Nakajima, S. Niu, L. Pollack, M. Rosing, K. Glaesemann, G. Sandrone,
      M. Stave, H. Taylor, G. Thomas, J. H. van Lenthe, A. T. Wong, Z. Zhang.

 Total times  cpu:     2913.4s     wall:     3006.3s
