 argument  1 = /storage/home/j/jbb5516/normalModes/mode1174.68-m.nw
 


============================== echo of input deck ==============================
echo
start

title "None"

geometry
C    -0.08747315    1.38836814    0.00000005
C    -1.26725331    0.69135701   -0.00000002
C    -1.16711203   -0.70495331   -0.00000002
C     0.08292860   -1.31595210    0.00000004
C     1.24635195   -0.55290191   -0.00000001
C     1.17045008    0.84494688    0.00000005
H    -2.23079819    1.18311316   -0.00000010
H    -2.06595897   -1.30822259   -0.00000009
H     0.15105879   -2.39532641    0.00000000
H     2.21374144   -1.03871780   -0.00000013
H     2.06462014    1.45380076   -0.00000010
symmetry c1
end

basis spherical
 * library "aug-cc-pvtz"
end

dft
 direct
 mult 2
 iterations 500
 xc b3lyp
end

tddft
 nroots 40
 notriplet
 algorithm 1
end
task tddft energy
================================================================================


                                         
                                         
 
 
              Northwest Computational Chemistry Package (NWChem) 6.8
              ------------------------------------------------------
 
 
                    Environmental Molecular Sciences Laboratory
                       Pacific Northwest National Laboratory
                                Richland, WA 99352
 
                              Copyright (c) 1994-2017
                       Pacific Northwest National Laboratory
                            Battelle Memorial Institute
 
             NWChem is an open-source computational chemistry package
                        distributed under the terms of the
                      Educational Community License (ECL) 2.0
             A copy of the license is included with this distribution
                              in the LICENSE.TXT file
 
                                  ACKNOWLEDGMENT
                                  --------------

            This software and its documentation were developed at the
            EMSL at Pacific Northwest National Laboratory, a multiprogram
            national laboratory, operated for the U.S. Department of Energy
            by Battelle under Contract Number DE-AC05-76RL01830. Support
            for this work was provided by the Department of Energy Office
            of Biological and Environmental Research, Office of Basic
            Energy Sciences, and the Office of Advanced Scientific Computing.


           Job information
           ---------------

    hostname        = comp-sc-0153.acib.production.int.aci.ics.psu.edu
    program         = /gpfs/group/lxj18/default/jeffprograms/nwchem-6.8.1/bin/LINUX64/nwchem
    date            = Sun Sep 20 15:02:53 2020

    compiled        = Wed_Oct_03_14:08:39_2018
    source          = /gpfs/group/lxj18/default/jeffprograms/nwchem-6.8.1
    nwchem branch   = 6.8.1
    nwchem revision = v6.8-143-gdb0d964
    ga revision     = 5.6.5
    use scalapack   = F
    input           = /storage/home/j/jbb5516/normalModes/mode1174.68-m.nw
    prefix          = mode1174.68-m.
    data base       = ./mode1174.68-m.db
    status          = startup
    nproc           =       20
    time left       =     -1s



           Memory information
           ------------------

    heap     =   13107200 doubles =    100.0 Mbytes
    stack    =   13107197 doubles =    100.0 Mbytes
    global   =   26214400 doubles =    200.0 Mbytes (distinct from heap & stack)
    total    =   52428797 doubles =    400.0 Mbytes
    verify   = yes
    hardfail = no 


           Directory information
           ---------------------
 
  0 permanent = .
  0 scratch   = .
 
 
 
 
                                NWChem Input Module
                                -------------------
 
 
                                       None
                                       ----

 Scaling coordinates for geometry "geometry" by  1.889725989
 (inverse scale =  0.529177249)

 Turning off AUTOSYM since
 SYMMETRY directive was detected!
 

          ------
          auto-z
          ------
 
 
                             Geometry "geometry" -> ""
                             -------------------------
 
 Output coordinates in angstroms (scale by  1.889725989 to convert to a.u.)
 
  No.       Tag          Charge          X              Y              Z
 ---- ---------------- ---------- -------------- -------------- --------------
    1 C                    6.0000    -0.08747354     1.38837216     0.00000005
    2 C                    6.0000    -1.26725370     0.69136103    -0.00000002
    3 C                    6.0000    -1.16711242    -0.70494929    -0.00000002
    4 C                    6.0000     0.08292821    -1.31594808     0.00000004
    5 C                    6.0000     1.24635156    -0.55289789    -0.00000001
    6 C                    6.0000     1.17044969     0.84495090     0.00000005
    7 H                    1.0000    -2.23079858     1.18311718    -0.00000010
    8 H                    1.0000    -2.06595936    -1.30821857    -0.00000009
    9 H                    1.0000     0.15105840    -2.39532239    -0.00000000
   10 H                    1.0000     2.21374105    -1.03871378    -0.00000013
   11 H                    1.0000     2.06461975     1.45380478    -0.00000010
 
      Atomic Mass 
      ----------- 
 
      C                 12.000000
      H                  1.007825
 

 Effective nuclear repulsion energy (a.u.)     195.0647513391

            Nuclear Dipole moment (a.u.) 
            ----------------------------
        X                 Y               Z
 ---------------- ---------------- ----------------
     0.0000000000     0.0000000000     0.0000000000
 


                                Z-matrix (autoz)
                                -------- 

 Units are Angstrom for bonds and degrees for angles
 
      Type          Name      I     J     K     L     M      Value
      ----------- --------  ----- ----- ----- ----- ----- ----------
    1 Stretch                  1     2                       1.37029
    2 Stretch                  1     6                       1.37028
    3 Stretch                  2     3                       1.39990
    4 Stretch                  2     7                       1.08178
    5 Stretch                  3     4                       1.39137
    6 Stretch                  3     8                       1.08252
    7 Stretch                  4     5                       1.39133
    8 Stretch                  4     9                       1.08152
    9 Stretch                  5     6                       1.39991
   10 Stretch                  5    10                       1.08252
   11 Stretch                  6    11                       1.08178
   12 Bend                     1     2     3               116.47234
   13 Bend                     1     2     7               122.38750
   14 Bend                     1     6     5               116.47234
   15 Bend                     1     6    11               122.38418
   16 Bend                     2     1     6               126.06123
   17 Bend                     2     3     4               120.15075
   18 Bend                     2     3     8               119.76575
   19 Bend                     3     2     7               121.14016
   20 Bend                     3     4     5               120.69188
   21 Bend                     3     4     9               119.66033
   22 Bend                     4     3     8               120.08350
   23 Bend                     4     5     6               120.15146
   24 Bend                     4     5    10               120.07501
   25 Bend                     5     4     9               119.64780
   26 Bend                     5     6    11               121.14348
   27 Bend                     6     5    10               119.77352
   28 Torsion                  1     2     3     4           0.00000
   29 Torsion                  1     2     3     8        -180.00000
   30 Torsion                  1     6     5     4           0.00000
   31 Torsion                  1     6     5    10         180.00000
   32 Torsion                  2     1     6     5           0.00000
   33 Torsion                  2     1     6    11         180.00000
   34 Torsion                  2     3     4     5           0.00000
   35 Torsion                  2     3     4     9        -180.00000
   36 Torsion                  3     2     1     6           0.00000
   37 Torsion                  3     4     5     6           0.00000
   38 Torsion                  3     4     5    10        -180.00000
   39 Torsion                  4     3     2     7         180.00000
   40 Torsion                  4     5     6    11        -180.00000
   41 Torsion                  5     4     3     8         180.00000
   42 Torsion                  6     1     2     7        -180.00000
   43 Torsion                  6     5     4     9        -180.00000
   44 Torsion                  7     2     3     8           0.00000
   45 Torsion                  8     3     4     9           0.00000
   46 Torsion                  9     4     5    10           0.00000
   47 Torsion                 10     5     6    11           0.00000
 
 
            XYZ format geometry
            -------------------
    11
 geometry
 C                    -0.08747354     1.38837216     0.00000005
 C                    -1.26725370     0.69136103    -0.00000002
 C                    -1.16711242    -0.70494929    -0.00000002
 C                     0.08292821    -1.31594808     0.00000004
 C                     1.24635156    -0.55289789    -0.00000001
 C                     1.17044969     0.84495090     0.00000005
 H                    -2.23079858     1.18311718    -0.00000010
 H                    -2.06595936    -1.30821857    -0.00000009
 H                     0.15105840    -2.39532239    -0.00000000
 H                     2.21374105    -1.03871378    -0.00000013
 H                     2.06461975     1.45380478    -0.00000010
 
 ==============================================================================
                                internuclear distances
 ------------------------------------------------------------------------------
       center one      |      center two      | atomic units |  angstroms
 ------------------------------------------------------------------------------
    2 C                |   1 C                |     2.58948  |     1.37029
    3 C                |   2 C                |     2.64542  |     1.39990
    4 C                |   3 C                |     2.62932  |     1.39137
    5 C                |   4 C                |     2.62923  |     1.39133
    6 C                |   1 C                |     2.58946  |     1.37028
    6 C                |   5 C                |     2.64544  |     1.39991
    7 H                |   2 C                |     2.04426  |     1.08178
    8 H                |   3 C                |     2.04567  |     1.08252
    9 H                |   4 C                |     2.04378  |     1.08152
   10 H                |   5 C                |     2.04567  |     1.08252
   11 H                |   6 C                |     2.04426  |     1.08178
 ------------------------------------------------------------------------------
                         number of included internuclear distances:         11
 ==============================================================================



 ==============================================================================
                                 internuclear angles
 ------------------------------------------------------------------------------
        center 1       |       center 2       |       center 3       |  degrees
 ------------------------------------------------------------------------------
    2 C                |   1 C                |   6 C                |   126.06
    1 C                |   2 C                |   3 C                |   116.47
    1 C                |   2 C                |   7 H                |   122.39
    3 C                |   2 C                |   7 H                |   121.14
    2 C                |   3 C                |   4 C                |   120.15
    2 C                |   3 C                |   8 H                |   119.77
    4 C                |   3 C                |   8 H                |   120.08
    3 C                |   4 C                |   5 C                |   120.69
    3 C                |   4 C                |   9 H                |   119.66
    5 C                |   4 C                |   9 H                |   119.65
    4 C                |   5 C                |   6 C                |   120.15
    4 C                |   5 C                |  10 H                |   120.08
    6 C                |   5 C                |  10 H                |   119.77
    1 C                |   6 C                |   5 C                |   116.47
    1 C                |   6 C                |  11 H                |   122.38
    5 C                |   6 C                |  11 H                |   121.14
 ------------------------------------------------------------------------------
                            number of included internuclear angles:         16
 ==============================================================================





 Summary of "ao basis" -> "" (spherical)
 ------------------------------------------------------------------------------
       Tag                 Description            Shells   Functions and Types
 ---------------- ------------------------------  ------  ---------------------
 *                        aug-cc-pvtz                 on all atoms 


 
                                 NWChem DFT Module
                                 -----------------
 
 
                                       None
 
 
                      Basis "ao basis" -> "ao basis" (spherical)
                      -----
  C (Carbon)
  ----------
            Exponent  Coefficients 
       -------------- ---------------------------------------------------------
  1 S  8.23600000E+03  0.000531
  1 S  1.23500000E+03  0.004108
  1 S  2.80800000E+02  0.021087
  1 S  7.92700000E+01  0.081853
  1 S  2.55900000E+01  0.234817
  1 S  8.99700000E+00  0.434401
  1 S  3.31900000E+00  0.346129
  1 S  3.64300000E-01 -0.008983
 
  2 S  8.23600000E+03 -0.000113
  2 S  1.23500000E+03 -0.000878
  2 S  2.80800000E+02 -0.004540
  2 S  7.92700000E+01 -0.018133
  2 S  2.55900000E+01 -0.055760
  2 S  8.99700000E+00 -0.126895
  2 S  3.31900000E+00 -0.170352
  2 S  3.64300000E-01  0.598684
 
  3 S  9.05900000E-01  1.000000
 
  4 S  1.28500000E-01  1.000000
 
  5 S  4.40200000E-02  1.000000
 
  6 P  1.87100000E+01  0.014031
  6 P  4.13300000E+00  0.086866
  6 P  1.20000000E+00  0.290216
 
  7 P  3.82700000E-01  1.000000
 
  8 P  1.20900000E-01  1.000000
 
  9 P  3.56900000E-02  1.000000
 
 10 D  1.09700000E+00  1.000000
 
 11 D  3.18000000E-01  1.000000
 
 12 D  1.00000000E-01  1.000000
 
 13 F  7.61000000E-01  1.000000
 
 14 F  2.68000000E-01  1.000000
 
  H (Hydrogen)
  ------------
            Exponent  Coefficients 
       -------------- ---------------------------------------------------------
  1 S  3.38700000E+01  0.006068
  1 S  5.09500000E+00  0.045308
  1 S  1.15900000E+00  0.202822
 
  2 S  3.25800000E-01  1.000000
 
  3 S  1.02700000E-01  1.000000
 
  4 S  2.52600000E-02  1.000000
 
  5 P  1.40700000E+00  1.000000
 
  6 P  3.88000000E-01  1.000000
 
  7 P  1.02000000E-01  1.000000
 
  8 D  1.05700000E+00  1.000000
 
  9 D  2.47000000E-01  1.000000
 


 Summary of "ao basis" -> "ao basis" (spherical)
 ------------------------------------------------------------------------------
       Tag                 Description            Shells   Functions and Types
 ---------------- ------------------------------  ------  ---------------------
 C                        aug-cc-pvtz               14       46   5s4p3d2f
 H                        aug-cc-pvtz                9       23   4s3p2d




 Summary of "ao basis" -> "ao basis" (spherical)
 ------------------------------------------------------------------------------
       Tag                 Description            Shells   Functions and Types
 ---------------- ------------------------------  ------  ---------------------
 C                        aug-cc-pvtz               14       46   5s4p3d2f
 H                        aug-cc-pvtz                9       23   4s3p2d


  Caching 1-el integrals 
 
            General Information
            -------------------
          SCF calculation type: DFT
          Wavefunction type:  spin polarized.
          No. of atoms     :    11
          No. of electrons :    41
           Alpha electrons :    21
            Beta electrons :    20
          Charge           :     0
          Spin multiplicity:     2
          Use of symmetry is: off; symmetry adaption is: off
          Maximum number of iterations: 500
          This is a Direct SCF calculation.
          AO basis - number of functions:   391
                     number of shells:   129
          Convergence on energy requested:  1.00D-06
          Convergence on density requested:  1.00D-05
          Convergence on gradient requested:  5.00D-04
 
              XC Information
              --------------
                         B3LYP Method XC Potential
                     Hartree-Fock (Exact) Exchange  0.200          
                        Slater Exchange Functional  0.800 local    
                    Becke 1988 Exchange Functional  0.720 non-local
              Lee-Yang-Parr Correlation Functional  0.810          
                  VWN I RPA Correlation Functional  0.190 local    
 
             Grid Information
             ----------------
          Grid used for XC integration:  medium    
          Radial quadrature: Mura-Knowles        
          Angular quadrature: Lebedev. 
          Tag              B.-S. Rad. Rad. Pts. Rad. Cut. Ang. Pts.
          ---              ---------- --------- --------- ---------
          C                   0.70       49          15.0       434
          H                   0.35       45          17.0       434
          Grid pruning is: on 
          Number of quadrature shells:   519
          Spatial weights used:  Erf1
 
          Convergence Information
          -----------------------
          Convergence aids based upon iterative change in 
          total energy or number of iterations. 
          Levelshifting, if invoked, occurs when the 
          HOMO/LUMO gap drops below (HL_TOL):  1.00D-02
          DIIS, if invoked, will attempt to extrapolate 
          using up to (NFOCK): 10 stored Fock matrices.

                    Damping( 0%)  Levelshifting(0.5)       DIIS
                  --------------- ------------------- ---------------
          dE  on:    start            ASAP                start   
          dE off:    2 iters        500 iters           500 iters 

 
      Screening Tolerance Information
      -------------------------------
          Density screening/tol_rho:  1.00D-10
          AO Gaussian exp screening on grid/accAOfunc:  14
          CD Gaussian exp screening on grid/accCDfunc:  20
          XC Gaussian exp screening on grid/accXCfunc:  20
          Schwarz screening/accCoul:  1.00D-08

 
 WARNING : Found     7 linear dependencies 
 S eigenvalue threshold:     1.00000E-05
 Smallest S eigenvalue :     1.46543E-06
 Largest  S eigenvalue :     7.75479E-06
 

 !! The overlap matrix has   7 vectors deemed linearly dependent with
    eigenvalues:
 1.47D-06 2.24D-06 2.83D-06 3.54D-06 5.27D-06 5.95D-06 7.75D-06
 
 
      Superposition of Atomic Density Guess
      -------------------------------------
 
 Sum of atomic energies:        -228.52307259
 
      Non-variational initial energy
      ------------------------------

 Total energy =    -232.667254
 1-e energy   =    -691.329870
 2-e energy   =     263.597865
 HOMO         =      -0.183386
 LUMO         =      -0.022409
 
   Time after variat. SCF:     10.1
   Time prior to 1st pass:     10.1

 Grid_pts file          = ./mode1174.68-m.gridpts.00
 Record size in doubles =  12289        No. of grid_pts per rec  =   3070
 Max. records in memory =      6        Max. recs in file   = 221256569

 Grid integrated density:      40.999766030774
 Requested integration accuracy:   0.10E-05

           Memory utilization after 1st SCF pass: 
           Heap Space remaining (MW):       12.96            12961280
          Stack Space remaining (MW):       13.10            13103676

   convergence    iter        energy       DeltaE   RMS-Dens  Diis-err    time
 ---------------- ----- ----------------- --------- --------- ---------  ------
 d= 0,ls=0.0,diis     1   -231.5815027696 -4.27D+02  6.20D-02  2.09D-01    20.8
                                                     7.00D-02  1.96D-01
 d= 0,ls=0.0,diis     2   -231.6398111924 -5.83D-02  6.11D-02  1.22D-02    31.5
                                                     6.88D-02  1.25D-02
 d= 0,ls=0.0,diis     3   -231.6445892677 -4.78D-03  1.28D-03  3.48D-03    42.2
                                                     1.39D-03  3.54D-03
 d= 0,ls=0.0,diis     4   -231.6457625043 -1.17D-03  2.05D-04  1.13D-03    52.9
                                                     2.09D-04  1.07D-03
 d= 0,ls=0.0,diis     5   -231.6462837834 -5.21D-04  3.39D-05  4.23D-05    63.7
                                                     3.12D-05  4.84D-05
  Resetting Diis
 d= 0,ls=0.0,diis     6   -231.6463115722 -2.78D-05  1.10D-05  7.91D-06    74.4
                                                     1.06D-05  6.41D-06
 d= 0,ls=0.0,diis     7   -231.6463177972 -6.23D-06  7.37D-06  2.15D-06    85.1
                                                     6.57D-06  2.40D-06
 d= 0,ls=0.0,diis     8   -231.6463188335 -1.04D-06  3.07D-06  5.57D-06    95.9
                                                     2.72D-06  4.92D-06
 d= 0,ls=0.0,diis     9   -231.6463221787 -3.35D-06  3.79D-06  3.82D-07   106.7
                                                     3.36D-06  3.26D-07
 d= 0,ls=0.0,diis    10   -231.6463234984 -1.32D-06  2.09D-06  1.85D-07   117.4
                                                     2.40D-06  2.84D-07
 d= 0,ls=0.0,diis    11   -231.6463239199 -4.21D-07  5.98D-07  1.23D-08   128.2
                                                     5.15D-07  8.98D-09


         Total DFT energy =     -231.646323919885
      One electron energy =     -696.562685849118
           Coulomb energy =      304.260852500544
    Exchange-Corr. energy =      -34.409241910372
 Nuclear repulsion energy =      195.064751339061

 Numeric. integr. density =       40.999984316720

     Total iterative time =    118.1s


 
                    DFT Final Alpha Molecular Orbital Analysis
                    ------------------------------------------
 
 Vector    1  Occ=1.000000D+00  E=-1.020518D+01
              MO Center= -8.7D-02,  1.4D+00,  4.8D-08, r^2= 3.0D-02
   Bfn.  Coefficient  Atom+Function         Bfn.  Coefficient  Atom+Function  
  ----- ------------  ---------------      ----- ------------  ---------------
     1      0.984157   1 C  s                 3      0.058854   1 C  s         
    50     -0.038693   2 C  s               234     -0.038693   6 C  s         
   279      0.038128   7 H  s               371      0.038129  11 H  s         
   143      0.037808   4 C  s                51     -0.030695   2 C  s         
   235     -0.030689   6 C  s                47      0.025518   2 C  s         
 
 Vector    2  Occ=1.000000D+00  E=-1.019185D+01
              MO Center= -9.1D-01, -6.4D-01, -2.4D-08, r^2= 6.7D-01
   Bfn.  Coefficient  Atom+Function         Bfn.  Coefficient  Atom+Function  
  ----- ------------  ---------------      ----- ------------  ---------------
    93      0.911399   3 C  s               185      0.319575   5 C  s         
    47      0.187408   2 C  s               142     -0.089445   4 C  s         
    95      0.054465   3 C  s               139      0.052585   4 C  s         
   231      0.052494   6 C  s               302      0.052488   8 H  s         
   325      0.045897   9 H  s               234      0.041543   6 C  s         
 
 Vector    3  Occ=1.000000D+00  E=-1.019182D+01
              MO Center=  9.8D-01, -5.0D-01, -1.3D-08, r^2= 6.8D-01
   Bfn.  Coefficient  Atom+Function         Bfn.  Coefficient  Atom+Function  
  ----- ------------  ---------------      ----- ------------  ---------------
   185      0.909641   5 C  s                93     -0.315070   3 C  s         
   231      0.198710   6 C  s                47     -0.082488   2 C  s         
    50      0.061578   2 C  s               348      0.060229  10 H  s         
   187      0.054192   5 C  s                51      0.051365   2 C  s         
   279     -0.050742   7 H  s               234     -0.046714   6 C  s         
 
 Vector    4  Occ=1.000000D+00  E=-1.019038D+01
              MO Center= -1.2D+00,  6.4D-01, -2.1D-08, r^2= 3.3D-01
   Bfn.  Coefficient  Atom+Function         Bfn.  Coefficient  Atom+Function  
  ----- ------------  ---------------      ----- ------------  ---------------
    47      0.946009   2 C  s                93     -0.194868   3 C  s         
   231      0.193111   6 C  s               279      0.058864   7 H  s         
    49      0.055239   2 C  s               143      0.037453   4 C  s         
     4     -0.035102   1 C  s               189      0.032810   5 C  s         
   142     -0.031404   4 C  s                51     -0.030567   2 C  s         
 
 Vector    5  Occ=1.000000D+00  E=-1.019037D+01
              MO Center=  1.1D+00,  7.8D-01,  4.3D-08, r^2= 3.4D-01
   Bfn.  Coefficient  Atom+Function         Bfn.  Coefficient  Atom+Function  
  ----- ------------  ---------------      ----- ------------  ---------------
   231      0.944438   6 C  s               185     -0.200524   5 C  s         
    47     -0.186110   2 C  s               371      0.056746  11 H  s         
   233      0.054791   6 C  s                93      0.051519   3 C  s         
    97      0.045149   3 C  s                96      0.040340   3 C  s         
   189     -0.038559   5 C  s                12     -0.036689   1 C  px        
 
 Vector    6  Occ=1.000000D+00  E=-1.018422D+01
              MO Center=  8.3D-02, -1.3D+00,  3.9D-08, r^2= 3.4D-02
   Bfn.  Coefficient  Atom+Function         Bfn.  Coefficient  Atom+Function  
  ----- ------------  ---------------      ----- ------------  ---------------
   139      0.984340   4 C  s               141      0.057803   4 C  s         
   325      0.046113   9 H  s                96     -0.045882   3 C  s         
   188     -0.045910   5 C  s               143     -0.043281   4 C  s         
     4      0.040458   1 C  s                93     -0.039031   3 C  s         
   185     -0.039167   5 C  s               151      0.035887   4 C  py        
 
 Vector    7  Occ=1.000000D+00  E=-8.724534D-01
              MO Center= -6.3D-03,  9.9D-02,  5.0D-09, r^2= 2.0D+00
   Bfn.  Coefficient  Atom+Function         Bfn.  Coefficient  Atom+Function  
  ----- ------------  ---------------      ----- ------------  ---------------
     2      0.214129   1 C  s                48      0.202585   2 C  s         
   232      0.202566   6 C  s                94      0.195566   3 C  s         
   186      0.195555   5 C  s               140      0.188403   4 C  s         
    50      0.090863   2 C  s               234      0.090901   6 C  s         
    96      0.088726   3 C  s               188      0.088719   5 C  s         
 
 Vector    8  Occ=1.000000D+00  E=-7.625842D-01
              MO Center= -6.4D-03,  1.0D-01,  2.0D-09, r^2= 2.8D+00
   Bfn.  Coefficient  Atom+Function         Bfn.  Coefficient  Atom+Function  
  ----- ------------  ---------------      ----- ------------  ---------------
    48      0.250914   2 C  s               232     -0.250811   6 C  s         
    94      0.243775   3 C  s               186     -0.243873   5 C  s         
    50      0.146631   2 C  s               234     -0.146566   6 C  s         
   279     -0.129470   7 H  s               371      0.129389  11 H  s         
   150     -0.115424   4 C  px               97      0.111397   3 C  s         
 
 Vector    9  Occ=1.000000D+00  E=-7.538842D-01
              MO Center=  9.3D-03, -1.5D-01, -2.7D-08, r^2= 2.6D+00
   Bfn.  Coefficient  Atom+Function         Bfn.  Coefficient  Atom+Function  
  ----- ------------  ---------------      ----- ------------  ---------------
   140     -0.300846   4 C  s                 2      0.278558   1 C  s         
    94     -0.148935   3 C  s               186     -0.148777   5 C  s         
    48      0.148008   2 C  s               142     -0.147694   4 C  s         
   232      0.148196   6 C  s                96     -0.104778   3 C  s         
   188     -0.104800   5 C  s                 4      0.103438   1 C  s         
 
 Vector   10  Occ=1.000000D+00  E=-6.189495D-01
              MO Center= -2.6D-03,  3.9D-02, -1.0D-08, r^2= 3.6D+00
   Bfn.  Coefficient  Atom+Function         Bfn.  Coefficient  Atom+Function  
  ----- ------------  ---------------      ----- ------------  ---------------
    94     -0.208592   3 C  s               186      0.208494   5 C  s         
    48      0.199404   2 C  s               232     -0.199440   6 C  s         
    50      0.183606   2 C  s               234     -0.183715   6 C  s         
    96     -0.146701   3 C  s               188      0.146657   5 C  s         
     6     -0.127251   1 C  px              144      0.116981   4 C  px        
 
 Vector   11  Occ=1.000000D+00  E=-6.032689D-01
              MO Center=  5.6D-03, -8.7D-02, -3.1D-08, r^2= 3.5D+00
   Bfn.  Coefficient  Atom+Function         Bfn.  Coefficient  Atom+Function  
  ----- ------------  ---------------      ----- ------------  ---------------
   142      0.257359   4 C  s                 2      0.238992   1 C  s         
   140      0.218834   4 C  s                 4      0.198411   1 C  s         
    94     -0.138440   3 C  s               186     -0.138588   5 C  s         
    50     -0.122799   2 C  s               234     -0.122683   6 C  s         
    96     -0.119125   3 C  s               188     -0.119216   5 C  s         
 
 Vector   12  Occ=1.000000D+00  E=-5.277975D-01
              MO Center=  9.4D-03, -1.5D-01, -1.1D-08, r^2= 4.1D+00
   Bfn.  Coefficient  Atom+Function         Bfn.  Coefficient  Atom+Function  
  ----- ------------  ---------------      ----- ------------  ---------------
   148      0.159147   4 C  py              145      0.138716   4 C  py        
   324     -0.126596   9 H  s                55      0.105368   2 C  px        
   240     -0.104910   6 C  py              323     -0.100188   9 H  s         
   237     -0.096145   6 C  py              193     -0.094514   5 C  px        
   278     -0.094594   7 H  s               370     -0.094596  11 H  s         
 
 Vector   13  Occ=1.000000D+00  E=-4.644240D-01
              MO Center= -5.9D-03,  1.0D-01,  4.0D-10, r^2= 2.7D+00
   Bfn.  Coefficient  Atom+Function         Bfn.  Coefficient  Atom+Function  
  ----- ------------  ---------------      ----- ------------  ---------------
     9      0.189053   1 C  px                6      0.175189   1 C  px        
   147      0.172470   4 C  px              144      0.159037   4 C  px        
   194     -0.135887   5 C  py              239     -0.136243   6 C  px        
    56     -0.132453   2 C  py              191     -0.122520   5 C  py        
   102      0.121670   3 C  py              236     -0.121316   6 C  px        
 
 Vector   14  Occ=1.000000D+00  E=-4.631803D-01
              MO Center=  9.3D-03, -1.6D-01, -4.3D-08, r^2= 4.8D+00
   Bfn.  Coefficient  Atom+Function         Bfn.  Coefficient  Atom+Function  
  ----- ------------  ---------------      ----- ------------  ---------------
     2      0.176578   1 C  s               301      0.136679   8 H  s         
   347      0.136749  10 H  s               140     -0.129625   4 C  s         
   193      0.127944   5 C  px              196      0.120523   5 C  px        
   101     -0.118519   3 C  px              190      0.118740   5 C  px        
    96      0.117140   3 C  s               104     -0.117451   3 C  px        
 
 Vector   15  Occ=1.000000D+00  E=-4.400105D-01
              MO Center= -1.3D-02,  2.1D-01, -2.5D-08, r^2= 4.0D+00
   Bfn.  Coefficient  Atom+Function         Bfn.  Coefficient  Atom+Function  
  ----- ------------  ---------------      ----- ------------  ---------------
   240      0.142950   6 C  py              102      0.138186   3 C  py        
   237      0.131985   6 C  py              278     -0.131929   7 H  s         
   370      0.131938  11 H  s                55      0.130461   2 C  px        
    99      0.129239   3 C  py               56     -0.127604   2 C  py        
   194     -0.125788   5 C  py               53     -0.118625   2 C  py        
 
 Vector   16  Occ=1.000000D+00  E=-3.991228D-01
              MO Center=  5.0D-02, -7.8D-01, -9.7D-09, r^2= 3.3D+00
   Bfn.  Coefficient  Atom+Function         Bfn.  Coefficient  Atom+Function  
  ----- ------------  ---------------      ----- ------------  ---------------
   148      0.233579   4 C  py              145      0.209229   4 C  py        
   324     -0.198509   9 H  s               151      0.173025   4 C  py        
   323     -0.154095   9 H  s                10      0.138563   1 C  py        
    13      0.121066   1 C  py              240      0.115116   6 C  py        
    56      0.109353   2 C  py                7      0.107862   1 C  py        
 
 Vector   17  Occ=1.000000D+00  E=-3.836993D-01
              MO Center= -7.6D-03,  1.2D-01, -5.8D-08, r^2= 2.7D+00
   Bfn.  Coefficient  Atom+Function         Bfn.  Coefficient  Atom+Function  
  ----- ------------  ---------------      ----- ------------  ---------------
    11      0.173453   1 C  pz               57      0.156373   2 C  pz        
   241      0.156360   6 C  pz              103      0.152225   3 C  pz        
   195      0.152215   5 C  pz              149      0.145973   4 C  pz        
     8      0.136834   1 C  pz               54      0.125751   2 C  pz        
   238      0.125741   6 C  pz              100      0.121724   3 C  pz        
 
 Vector   18  Occ=1.000000D+00  E=-3.658993D-01
              MO Center=  9.2D-03, -1.4D-01, -2.8D-08, r^2= 4.1D+00
   Bfn.  Coefficient  Atom+Function         Bfn.  Coefficient  Atom+Function  
  ----- ------------  ---------------      ----- ------------  ---------------
   147     -0.169382   4 C  px              101      0.165247   3 C  px        
   193      0.165187   5 C  px              144     -0.159972   4 C  px        
     9      0.149409   1 C  px               98      0.149505   3 C  px        
   190      0.149222   5 C  px                6      0.141613   1 C  px        
   196      0.135824   5 C  px              104      0.133692   3 C  px        
 
 Vector   19  Occ=1.000000D+00  E=-2.686089D-01
              MO Center=  1.1D-03, -1.5D-02,  7.7D-08, r^2= 3.0D+00
   Bfn.  Coefficient  Atom+Function         Bfn.  Coefficient  Atom+Function  
  ----- ------------  ---------------      ----- ------------  ---------------
    11      0.245249   1 C  pz              149     -0.238484   4 C  pz        
     8      0.192885   1 C  pz              146     -0.190670   4 C  pz        
    14      0.176061   1 C  pz              152     -0.171342   4 C  pz        
   195     -0.126947   5 C  pz              103     -0.126135   3 C  pz        
    57      0.115282   2 C  pz              241      0.114490   6 C  pz        
 
 Vector   20  Occ=1.000000D+00  E=-2.677724D-01
              MO Center= -4.0D-03,  6.1D-02,  2.8D-07, r^2= 3.1D+00
   Bfn.  Coefficient  Atom+Function         Bfn.  Coefficient  Atom+Function  
  ----- ------------  ---------------      ----- ------------  ---------------
   103      0.207744   3 C  pz              195     -0.207246   5 C  pz        
    57      0.203602   2 C  pz              241     -0.204052   6 C  pz        
   100      0.165501   3 C  pz              192     -0.165103   5 C  pz        
    54      0.163032   2 C  pz              238     -0.163390   6 C  pz        
    60      0.150406   2 C  pz              106      0.150206   3 C  pz        
 
 Vector   21  Occ=1.000000D+00  E=-2.484544D-01
              MO Center= -8.2D-02,  1.3D+00,  8.5D-08, r^2= 2.3D+00
   Bfn.  Coefficient  Atom+Function         Bfn.  Coefficient  Atom+Function  
  ----- ------------  ---------------      ----- ------------  ---------------
    10      0.385958   1 C  py               13      0.337511   1 C  py        
     5      0.334334   1 C  s                 7      0.299338   1 C  py        
     4      0.280118   1 C  s                 2      0.138455   1 C  s         
   243     -0.136017   6 C  py               59     -0.134004   2 C  py        
   102      0.112319   3 C  py              194      0.112340   5 C  py        
 
 Vector   22  Occ=0.000000D+00  E=-2.611251D-02
              MO Center= -4.4D-03,  6.8D-02, -1.1D-06, r^2= 4.3D+00
   Bfn.  Coefficient  Atom+Function         Bfn.  Coefficient  Atom+Function  
  ----- ------------  ---------------      ----- ------------  ---------------
   109     -0.319636   3 C  pz              201      0.319487   5 C  pz        
    63      0.314098   2 C  pz              247     -0.314171   6 C  pz        
    60      0.226938   2 C  pz              244     -0.226983   6 C  pz        
   106     -0.223743   3 C  pz              198      0.223635   5 C  pz        
    57      0.218749   2 C  pz              241     -0.218803   6 C  pz        
 
 Vector   23  Occ=0.000000D+00  E=-1.849160D-02
              MO Center=  3.2D-03, -4.9D-02, -4.2D-06, r^2= 4.3D+00
   Bfn.  Coefficient  Atom+Function         Bfn.  Coefficient  Atom+Function  
  ----- ------------  ---------------      ----- ------------  ---------------
   155      0.440379   4 C  pz               17      0.374196   1 C  pz        
   152      0.273851   4 C  pz               11      0.258944   1 C  pz        
   149      0.250715   4 C  pz               14      0.240568   1 C  pz        
   109     -0.226436   3 C  pz              201     -0.226662   5 C  pz        
     8      0.200617   1 C  pz               63     -0.198729   2 C  pz        
 
 Vector   24  Occ=0.000000D+00  E=-1.010791D-02
              MO Center=  6.0D-02, -9.6D-01, -2.3D-06, r^2= 2.0D+01
   Bfn.  Coefficient  Atom+Function         Bfn.  Coefficient  Atom+Function  
  ----- ------------  ---------------      ----- ------------  ---------------
     5      1.442395   1 C  s               279     -0.976933   7 H  s         
   371     -0.976913  11 H  s               326     -0.743058   9 H  s         
   303     -0.730290   8 H  s               349     -0.730166  10 H  s         
   302     -0.650562   8 H  s               348     -0.650610  10 H  s         
   325     -0.588030   9 H  s                51      0.564726   2 C  s         
 
 Vector   25  Occ=0.000000D+00  E= 4.410877D-03
              MO Center=  1.6D-02, -2.6D-01, -9.4D-06, r^2= 2.7D+01
   Bfn.  Coefficient  Atom+Function         Bfn.  Coefficient  Atom+Function  
  ----- ------------  ---------------      ----- ------------  ---------------
    51      2.731699   2 C  s               235     -2.730029   6 C  s         
    97      2.676456   3 C  s               189     -2.676445   5 C  s         
   303      1.999225   8 H  s               349     -1.999406  10 H  s         
    15      1.868807   1 C  px              153      1.808592   4 C  px        
   280      1.541514   7 H  s               372     -1.540733  11 H  s         
 
 Vector   26  Occ=0.000000D+00  E= 8.710598D-03
              MO Center=  4.6D-03, -6.6D-02,  5.5D-05, r^2= 2.7D+01
   Bfn.  Coefficient  Atom+Function         Bfn.  Coefficient  Atom+Function  
  ----- ------------  ---------------      ----- ------------  ---------------
   143      6.237777   4 C  s                51     -4.003057   2 C  s         
   235     -4.004419   6 C  s               326      2.927231   9 H  s         
     5      2.578994   1 C  s               280     -2.387083   7 H  s         
   372     -2.387717  11 H  s               154      1.942855   4 C  py        
   246      1.935119   6 C  py               62      1.831503   2 C  py        
 
 Vector   27  Occ=0.000000D+00  E= 2.669090D-02
              MO Center= -1.6D-02,  2.5D-01, -2.4D-05, r^2= 3.1D+01
   Bfn.  Coefficient  Atom+Function         Bfn.  Coefficient  Atom+Function  
  ----- ------------  ---------------      ----- ------------  ---------------
   280      3.925965   7 H  s               372     -3.925551  11 H  s         
    51      3.653131   2 C  s               235     -3.652827   6 C  s         
   303     -3.594952   8 H  s               349      3.594325  10 H  s         
    61      2.215696   2 C  px               97     -2.185274   3 C  s         
   189      2.185427   5 C  s               199     -2.034374   5 C  px        
 
 Vector   28  Occ=0.000000D+00  E= 3.223143D-02
              MO Center=  4.0D-02, -6.3D-01, -1.2D-04, r^2= 2.9D+01
   Bfn.  Coefficient  Atom+Function         Bfn.  Coefficient  Atom+Function  
  ----- ------------  ---------------      ----- ------------  ---------------
     5      6.385818   1 C  s               326     -5.007465   9 H  s         
   303      3.729054   8 H  s               349      3.730231  10 H  s         
    97     -2.177554   3 C  s               154     -2.179950   4 C  py        
   189     -2.177597   5 C  s               199     -1.649064   5 C  px        
   245      1.630942   6 C  px               61     -1.577066   2 C  px        
 
 Vector   29  Occ=0.000000D+00  E= 4.329606D-02
              MO Center=  1.4D-02, -2.2D-01,  8.9D-06, r^2= 1.3D+01
   Bfn.  Coefficient  Atom+Function         Bfn.  Coefficient  Atom+Function  
  ----- ------------  ---------------      ----- ------------  ---------------
   155      0.600098   4 C  pz               63      0.576112   2 C  pz        
   247      0.576042   6 C  pz               17     -0.260042   1 C  pz        
    60     -0.154962   2 C  pz              244     -0.154980   6 C  pz        
   289     -0.123589   7 H  pz              381     -0.123588  11 H  pz        
   259      0.120175   6 C  d -1             77      0.109702   2 C  d  1      
 
 Vector   30  Occ=0.000000D+00  E= 5.497814D-02
              MO Center=  9.3D-03, -1.5D-01, -3.9D-05, r^2= 1.5D+01
   Bfn.  Coefficient  Atom+Function         Bfn.  Coefficient  Atom+Function  
  ----- ------------  ---------------      ----- ------------  ---------------
     5     10.702228   1 C  s               143      5.252931   4 C  s         
    51     -4.471840   2 C  s               235     -4.470955   6 C  s         
   303     -2.783139   8 H  s               349     -2.783937  10 H  s         
   326      2.033841   9 H  s               199      1.995299   5 C  px        
    97     -1.950270   3 C  s               189     -1.951326   5 C  s         
 
 Vector   31  Occ=0.000000D+00  E= 6.334247D-02
              MO Center= -4.1D-02,  6.4D-01, -1.0D-04, r^2= 2.8D+01
   Bfn.  Coefficient  Atom+Function         Bfn.  Coefficient  Atom+Function  
  ----- ------------  ---------------      ----- ------------  ---------------
     5     24.372170   1 C  s                51     -9.868734   2 C  s         
   235     -9.869132   6 C  s               143      7.638114   4 C  s         
    97     -6.506608   3 C  s               189     -6.506553   5 C  s         
   326      5.885923   9 H  s               154      4.780733   4 C  py        
   303     -4.687489   8 H  s               349     -4.687554  10 H  s         
 
 Vector   32  Occ=0.000000D+00  E= 6.576143D-02
              MO Center=  1.6D-03, -2.5D-02,  5.4D-04, r^2= 1.8D+01
   Bfn.  Coefficient  Atom+Function         Bfn.  Coefficient  Atom+Function  
  ----- ------------  ---------------      ----- ------------  ---------------
   109      0.976848   3 C  pz              201     -0.977047   5 C  pz        
    63      0.770769   2 C  pz              247     -0.770375   6 C  pz        
   169     -0.677991   4 C  d  1             31     -0.583057   1 C  d  1      
   106      0.493384   3 C  pz              198     -0.493303   5 C  pz        
    60      0.489005   2 C  pz              244     -0.489077   6 C  pz        
 
 Vector   33  Occ=0.000000D+00  E= 6.825139D-02
              MO Center= -1.2D-02,  1.9D-01, -2.7D-04, r^2= 1.8D+01
   Bfn.  Coefficient  Atom+Function         Bfn.  Coefficient  Atom+Function  
  ----- ------------  ---------------      ----- ------------  ---------------
    63      1.023032   2 C  pz              247      1.023316   6 C  pz        
   109     -0.811029   3 C  pz              201     -0.810685   5 C  pz        
   155     -0.750904   4 C  pz               14      0.625887   1 C  pz        
   152     -0.614431   4 C  pz               17      0.459247   1 C  pz        
   213     -0.450808   5 C  d -1            121     -0.407136   3 C  d -1      
 
 Vector   34  Occ=0.000000D+00  E= 7.649514D-02
              MO Center=  9.2D-03, -1.6D-01, -1.3D-04, r^2= 3.5D+01
   Bfn.  Coefficient  Atom+Function         Bfn.  Coefficient  Atom+Function  
  ----- ------------  ---------------      ----- ------------  ---------------
    51     13.877968   2 C  s               235    -13.864351   6 C  s         
    97     12.443810   3 C  s               189    -12.446900   5 C  s         
    15      7.696477   1 C  px              153      7.725410   4 C  px        
   107      4.765633   3 C  px              303      4.699281   8 H  s         
   349     -4.699704  10 H  s               199      4.458979   5 C  px        
 
 Vector   35  Occ=0.000000D+00  E= 7.789397D-02
              MO Center=  2.1D-01, -3.3D+00,  1.3D-04, r^2= 2.1D+01
   Bfn.  Coefficient  Atom+Function         Bfn.  Coefficient  Atom+Function  
  ----- ------------  ---------------      ----- ------------  ---------------
   143     18.298715   4 C  s                51    -13.443249   2 C  s         
   235    -13.454474   6 C  s               326      7.024470   9 H  s         
    62      5.667946   2 C  py              246      5.689454   6 C  py        
   200      5.408715   5 C  py              154      5.269544   4 C  py        
   108      5.047914   3 C  py              279      4.184461   7 H  s         
 
 Vector   36  Occ=0.000000D+00  E= 8.158003D-02
              MO Center= -8.8D-02,  1.4D+00,  6.9D-05, r^2= 2.8D+01
   Bfn.  Coefficient  Atom+Function         Bfn.  Coefficient  Atom+Function  
  ----- ------------  ---------------      ----- ------------  ---------------
   143     20.643300   4 C  s                51     -8.894569   2 C  s         
   235     -8.898099   6 C  s               246      5.257187   6 C  py        
    62      5.164693   2 C  py              325     -4.967095   9 H  s         
   280     -4.560796   7 H  s               372     -4.560917  11 H  s         
   200      4.463738   5 C  py              326      4.476012   9 H  s         
 
 Vector   37  Occ=0.000000D+00  E= 8.316772D-02
              MO Center=  4.5D-02, -7.2D-01, -1.0D-05, r^2= 2.2D+01
   Bfn.  Coefficient  Atom+Function         Bfn.  Coefficient  Atom+Function  
  ----- ------------  ---------------      ----- ------------  ---------------
    97      4.888046   3 C  s               189     -4.892713   5 C  s         
    51     -3.169101   2 C  s               235      3.173514   6 C  s         
   108      2.813524   3 C  py              303      2.796415   8 H  s         
   349     -2.794689  10 H  s               200     -2.702713   5 C  py        
   153      2.569053   4 C  px               96      2.062233   3 C  s         
 
 Vector   38  Occ=0.000000D+00  E= 9.538761D-02
              MO Center= -5.6D-02,  8.8D-01,  1.4D-05, r^2= 3.1D+01
   Bfn.  Coefficient  Atom+Function         Bfn.  Coefficient  Atom+Function  
  ----- ------------  ---------------      ----- ------------  ---------------
    51     17.613745   2 C  s               235    -17.610910   6 C  s         
   280      7.209080   7 H  s               372     -7.208357  11 H  s         
    97     -6.909104   3 C  s               189      6.908585   5 C  s         
   108     -6.449803   3 C  py              303     -6.191245   8 H  s         
   349      6.190335  10 H  s               200      5.907576   5 C  py        
 
 Vector   39  Occ=0.000000D+00  E= 1.018053D-01
              MO Center= -6.9D-03,  1.1D-01, -3.3D-04, r^2= 1.9D+01
   Bfn.  Coefficient  Atom+Function         Bfn.  Coefficient  Atom+Function  
  ----- ------------  ---------------      ----- ------------  ---------------
    51     13.774617   2 C  s               235    -13.773479   6 C  s         
    97     10.892017   3 C  s               189    -10.892488   5 C  s         
    15     10.018614   1 C  px              153      9.738478   4 C  px        
   246     -6.087930   6 C  py              108     -6.032246   3 C  py        
   200      5.996436   5 C  py               62      5.902144   2 C  py        
 
 Vector   40  Occ=0.000000D+00  E= 1.064665D-01
              MO Center= -8.1D-03,  1.3D-01, -5.6D-04, r^2= 2.1D+01
   Bfn.  Coefficient  Atom+Function         Bfn.  Coefficient  Atom+Function  
  ----- ------------  ---------------      ----- ------------  ---------------
   143     18.272286   4 C  s                51     -9.932472   2 C  s         
   235     -9.932236   6 C  s                 5     -9.448541   1 C  s         
   107     -8.756128   3 C  px              199      7.974098   5 C  px        
   245     -7.035563   6 C  px              200      6.725998   5 C  py        
    61      6.481601   2 C  px              108      5.671736   3 C  py        
 
 Vector   41  Occ=0.000000D+00  E= 1.081866D-01
              MO Center= -1.0D-02,  1.6D-01, -9.3D-05, r^2= 2.2D+01
   Bfn.  Coefficient  Atom+Function         Bfn.  Coefficient  Atom+Function  
  ----- ------------  ---------------      ----- ------------  ---------------
    63      3.390407   2 C  pz              247     -3.390927   6 C  pz        
   109     -3.363423   3 C  pz              201      3.361414   5 C  pz        
    60      0.697021   2 C  pz              244     -0.697146   6 C  pz        
   106     -0.637061   3 C  pz              198      0.636683   5 C  pz        
    77     -0.381055   2 C  d  1            215      0.362016   5 C  d  1      
 
 Vector   42  Occ=0.000000D+00  E= 1.089841D-01
              MO Center=  3.0D-02, -4.7D-01,  2.2D-03, r^2= 2.1D+01
   Bfn.  Coefficient  Atom+Function         Bfn.  Coefficient  Atom+Function  
  ----- ------------  ---------------      ----- ------------  ---------------
   155      5.325879   4 C  pz              109     -3.444725   3 C  pz        
   201     -3.447066   5 C  pz               17      2.508216   1 C  pz        
   152      0.983528   4 C  pz              106     -0.603472   3 C  pz        
   198     -0.603939   5 C  pz              167      0.568527   4 C  d -1      
    14      0.504278   1 C  pz               63     -0.474675   2 C  pz        
 
 Vector   43  Occ=0.000000D+00  E= 1.095026D-01
              MO Center=  2.9D-02, -4.6D-01, -1.2D-03, r^2= 2.7D+01
   Bfn.  Coefficient  Atom+Function         Bfn.  Coefficient  Atom+Function  
  ----- ------------  ---------------      ----- ------------  ---------------
   326      7.686786   9 H  s               154      7.066108   4 C  py        
   303     -6.477278   8 H  s               349     -6.479269  10 H  s         
   143     -5.577013   4 C  s               108     -4.429470   3 C  py        
   200     -4.184874   5 C  py               62     -4.151231   2 C  py        
   246     -4.130068   6 C  py                4      3.930717   1 C  s         
 
 Vector   44  Occ=0.000000D+00  E= 1.178237D-01
              MO Center= -4.1D-02,  6.6D-01, -4.2D-04, r^2= 1.4D+01
   Bfn.  Coefficient  Atom+Function         Bfn.  Coefficient  Atom+Function  
  ----- ------------  ---------------      ----- ------------  ---------------
    17      6.883227   1 C  pz               63     -6.024029   2 C  pz        
   247     -6.023781   6 C  pz              109      5.052067   3 C  pz        
   201      5.051855   5 C  pz              155     -4.823199   4 C  pz        
    14      1.235224   1 C  pz               60     -1.020699   2 C  pz        
   244     -1.020658   6 C  pz              106      0.892258   3 C  pz        
 
 Vector   45  Occ=0.000000D+00  E= 1.264141D-01
              MO Center= -1.8D-02,  2.9D-01, -1.9D-05, r^2= 2.5D+01
   Bfn.  Coefficient  Atom+Function         Bfn.  Coefficient  Atom+Function  
  ----- ------------  ---------------      ----- ------------  ---------------
    51      7.552246   2 C  s               235     -7.550832   6 C  s         
   107      7.210250   3 C  px              199      7.132943   5 C  px        
   245     -7.047024   6 C  px               61     -6.935354   2 C  px        
    15      6.429775   1 C  px               97     -6.171523   3 C  s         
   189      6.172392   5 C  s               153     -5.810186   4 C  px        
 
 Vector   46  Occ=0.000000D+00  E= 1.274524D-01
              MO Center= -1.2D-02,  1.9D-01,  1.4D-04, r^2= 2.6D+01
   Bfn.  Coefficient  Atom+Function         Bfn.  Coefficient  Atom+Function  
  ----- ------------  ---------------      ----- ------------  ---------------
   154     -8.033502   4 C  py               16      7.421577   1 C  py        
   108      6.891277   3 C  py               62     -6.574937   2 C  py        
   200      6.573488   5 C  py              246     -6.381628   6 C  py        
   326     -4.056683   9 H  s                 5      3.608277   1 C  s         
   303      3.162695   8 H  s               349      3.163286  10 H  s         
 
 Vector   47  Occ=0.000000D+00  E= 1.609615D-01
              MO Center= -8.5D-03,  1.4D-01,  9.5D-05, r^2= 1.7D+01
   Bfn.  Coefficient  Atom+Function         Bfn.  Coefficient  Atom+Function  
  ----- ------------  ---------------      ----- ------------  ---------------
    17      8.192795   1 C  pz               63     -8.002344   2 C  pz        
   247     -8.002568   6 C  pz              155     -7.859278   4 C  pz        
   109      7.770399   3 C  pz              201      7.770747   5 C  pz        
    60     -1.191850   2 C  pz              106      1.192761   3 C  pz        
   198      1.192802   5 C  pz              244     -1.191914   6 C  pz        
 
 Vector   48  Occ=0.000000D+00  E= 1.660705D-01
              MO Center= -8.9D-02,  1.4D+00,  3.1D-04, r^2= 2.2D+01
   Bfn.  Coefficient  Atom+Function         Bfn.  Coefficient  Atom+Function  
  ----- ------------  ---------------      ----- ------------  ---------------
     5     59.295487   1 C  s                51    -26.023075   2 C  s         
   143     25.957343   4 C  s               235    -26.026476   6 C  s         
    97    -14.445128   3 C  s               189    -14.449967   5 C  s         
   154      7.447719   4 C  py              245      6.818135   6 C  px        
    61     -6.402604   2 C  px              326      6.167714   9 H  s         
 
 Vector   49  Occ=0.000000D+00  E= 1.754184D-01
              MO Center=  2.5D-02, -3.9D-01, -1.7D-04, r^2= 1.1D+01
   Bfn.  Coefficient  Atom+Function         Bfn.  Coefficient  Atom+Function  
  ----- ------------  ---------------      ----- ------------  ---------------
   335      1.104353   9 H  pz              312      1.079389   8 H  pz        
   358      1.079337  10 H  pz              289      0.973004   7 H  pz        
   381      0.972968  11 H  pz               17      0.955923   1 C  pz        
    63     -0.882886   2 C  pz              247     -0.882729   6 C  pz        
   106     -0.844627   3 C  pz              198     -0.844449   5 C  pz        
 
 Vector   50  Occ=0.000000D+00  E= 1.864249D-01
              MO Center=  3.5D-02, -5.6D-01,  9.6D-05, r^2= 1.5D+01
   Bfn.  Coefficient  Atom+Function         Bfn.  Coefficient  Atom+Function  
  ----- ------------  ---------------      ----- ------------  ---------------
     5     15.122744   1 C  s                97     -7.143875   3 C  s         
   189     -7.141627   5 C  s                51     -4.486796   2 C  s         
   235     -4.501263   6 C  s               325      4.359303   9 H  s         
    62     -3.987471   2 C  py              154      3.983274   4 C  py        
   246     -3.770976   6 C  py              302      3.234581   8 H  s         
 
 Vector   51  Occ=0.000000D+00  E= 1.980310D-01
              MO Center= -3.0D-02,  4.7D-01,  3.6D-04, r^2= 2.3D+01
   Bfn.  Coefficient  Atom+Function         Bfn.  Coefficient  Atom+Function  
  ----- ------------  ---------------      ----- ------------  ---------------
    51     44.569273   2 C  s               235    -44.555588   6 C  s         
    97     25.294882   3 C  s               189    -25.294578   5 C  s         
    15     18.508580   1 C  px              153     17.082482   4 C  px        
   302    -14.007972   8 H  s               348     14.005718  10 H  s         
   200      9.215116   5 C  py              108     -8.501228   3 C  py        
 
 Vector   52  Occ=0.000000D+00  E= 1.984575D-01
              MO Center=  4.6D-02, -7.3D-01, -5.0D-04, r^2= 2.3D+01
   Bfn.  Coefficient  Atom+Function         Bfn.  Coefficient  Atom+Function  
  ----- ------------  ---------------      ----- ------------  ---------------
   143     61.333268   4 C  s                51    -34.521370   2 C  s         
   235    -34.524822   6 C  s               325    -16.894662   9 H  s         
    62     14.751194   2 C  py              246     14.473240   6 C  py        
   200     13.774648   5 C  py              108     12.564799   3 C  py        
     5    -11.621301   1 C  s               279     11.168534   7 H  s         
 
 Vector   53  Occ=0.000000D+00  E= 2.153360D-01
              MO Center=  8.9D-02, -1.4D+00, -4.1D-05, r^2= 1.5D+01
   Bfn.  Coefficient  Atom+Function         Bfn.  Coefficient  Atom+Function  
  ----- ------------  ---------------      ----- ------------  ---------------
    97     13.828350   3 C  s               189    -13.840145   5 C  s         
    96      6.527202   3 C  s               188     -6.533343   5 C  s         
   153      6.269298   4 C  px              279     -5.140340   7 H  s         
   371      5.151750  11 H  s               303      4.768332   8 H  s         
   349     -4.765435  10 H  s               246     -4.463666   6 C  py        
 
 Vector   54  Occ=0.000000D+00  E= 2.184020D-01
              MO Center=  1.7D-02, -2.8D-01, -1.8D-04, r^2= 1.5D+01
   Bfn.  Coefficient  Atom+Function         Bfn.  Coefficient  Atom+Function  
  ----- ------------  ---------------      ----- ------------  ---------------
   143     25.669887   4 C  s                51    -17.783580   2 C  s         
   235    -17.675695   6 C  s                 5     15.987782   1 C  s         
    16     -6.430508   1 C  py              325     -6.019319   9 H  s         
    62      4.789335   2 C  py              246      4.706792   6 C  py        
   279      3.747351   7 H  s               371      3.733794  11 H  s         
 
 Vector   55  Occ=0.000000D+00  E= 2.189354D-01
              MO Center=  3.5D-03, -6.6D-02,  1.0D-03, r^2= 1.5D+01
   Bfn.  Coefficient  Atom+Function         Bfn.  Coefficient  Atom+Function  
  ----- ------------  ---------------      ----- ------------  ---------------
   235    -19.645374   6 C  s                51     19.547595   2 C  s         
   108     -8.391894   3 C  py              200      8.064330   5 C  py        
    15      7.495968   1 C  px              302     -6.841241   8 H  s         
   348      6.841207  10 H  s               153      6.326933   4 C  px        
   246     -4.082386   6 C  py               62      3.974827   2 C  py        
 
 Vector   56  Occ=0.000000D+00  E= 2.301954D-01
              MO Center= -1.8D-02,  2.8D-01,  2.0D-03, r^2= 1.8D+01
   Bfn.  Coefficient  Atom+Function         Bfn.  Coefficient  Atom+Function  
  ----- ------------  ---------------      ----- ------------  ---------------
   199      4.910735   5 C  px              107      4.641698   3 C  px        
   153     -3.702155   4 C  px               50     -3.244962   2 C  s         
   234      3.242251   6 C  s               303      3.141302   8 H  s         
   349     -3.137707  10 H  s                15     -2.756662   1 C  px        
   108      2.501994   3 C  py              302      2.006667   8 H  s         
 
 Vector   57  Occ=0.000000D+00  E= 2.312493D-01
              MO Center= -1.7D-04,  3.4D-04, -3.9D-03, r^2= 1.6D+01
   Bfn.  Coefficient  Atom+Function         Bfn.  Coefficient  Atom+Function  
  ----- ------------  ---------------      ----- ------------  ---------------
   106      2.145879   3 C  pz              198     -2.145976   5 C  pz        
    60      2.048914   2 C  pz              244     -2.049003   6 C  pz        
   312     -1.818394   8 H  pz              358      1.818564  10 H  pz        
   289     -1.720590   7 H  pz              381      1.720228  11 H  pz        
   169     -1.383526   4 C  d  1             31     -1.247440   1 C  d  1      
 
 Vector   58  Occ=0.000000D+00  E= 2.355797D-01
              MO Center= -1.5D-02,  2.2D-01,  4.9D-04, r^2= 1.6D+01
   Bfn.  Coefficient  Atom+Function         Bfn.  Coefficient  Atom+Function  
  ----- ------------  ---------------      ----- ------------  ---------------
   143     14.745522   4 C  s                51    -10.442865   2 C  s         
   235    -10.221776   6 C  s               107     -8.179663   3 C  px        
   199      7.764226   5 C  px               61      5.461767   2 C  px        
   245     -5.335096   6 C  px              349     -4.438079  10 H  s         
   303     -4.408814   8 H  s                 5      3.974350   1 C  s         
 
 Vector   59  Occ=0.000000D+00  E= 2.365767D-01
              MO Center= -2.6D-03,  7.3D-02,  1.0D-03, r^2= 1.8D+01
   Bfn.  Coefficient  Atom+Function         Bfn.  Coefficient  Atom+Function  
  ----- ------------  ---------------      ----- ------------  ---------------
    97    -33.109377   3 C  s               189     33.113844   5 C  s         
    51     31.562995   2 C  s               235    -31.639121   6 C  s         
    96    -14.407615   3 C  s               188     14.391018   5 C  s         
   279     10.827402   7 H  s               371    -10.810714  11 H  s         
   302    -10.699949   8 H  s               348     10.698269  10 H  s         
 
 Vector   60  Occ=0.000000D+00  E= 2.434142D-01
              MO Center=  2.8D-03, -4.2D-02, -4.8D-04, r^2= 1.5D+01
   Bfn.  Coefficient  Atom+Function         Bfn.  Coefficient  Atom+Function  
  ----- ------------  ---------------      ----- ------------  ---------------
   152      3.412265   4 C  pz               14     -3.020187   1 C  pz        
   289      2.170982   7 H  pz              381      2.171240  11 H  pz        
   335     -2.125367   9 H  pz              261      1.998656   6 C  d  1      
    77     -1.984648   2 C  d  1             63     -1.597454   2 C  pz        
   247     -1.597778   6 C  pz              155      1.367889   4 C  pz        
 
 Vector   61  Occ=0.000000D+00  E= 2.593124D-01
              MO Center=  3.7D-02, -5.8D-01,  6.6D-05, r^2= 1.7D+01
   Bfn.  Coefficient  Atom+Function         Bfn.  Coefficient  Atom+Function  
  ----- ------------  ---------------      ----- ------------  ---------------
     5      8.398436   1 C  s               108     -6.578966   3 C  py        
   200     -6.007239   5 C  py              143     -5.182346   4 C  s         
   303     -5.087008   8 H  s               349     -5.088510  10 H  s         
   199      4.955353   5 C  px              197     -4.831878   5 C  py        
   105     -4.719618   3 C  py              107     -4.161164   3 C  px        
 
 Vector   62  Occ=0.000000D+00  E= 2.620992D-01
              MO Center=  7.0D-02, -1.1D+00, -5.1D-05, r^2= 1.7D+01
   Bfn.  Coefficient  Atom+Function         Bfn.  Coefficient  Atom+Function  
  ----- ------------  ---------------      ----- ------------  ---------------
     5     19.192588   1 C  s               154     15.482340   4 C  py        
   143     15.160821   4 C  s                51    -14.645593   2 C  s         
   235    -14.630620   6 C  s               326      9.268352   9 H  s         
     4      6.008248   1 C  s               108     -4.903563   3 C  py        
    97     -4.705372   3 C  s               189     -4.711367   5 C  s         
 
 Vector   63  Occ=0.000000D+00  E= 2.677160D-01
              MO Center= -2.8D-02,  4.4D-01,  6.5D-05, r^2= 2.0D+01
   Bfn.  Coefficient  Atom+Function         Bfn.  Coefficient  Atom+Function  
  ----- ------------  ---------------      ----- ------------  ---------------
    51     20.143849   2 C  s               235    -20.154517   6 C  s         
    97    -11.891735   3 C  s               189     11.886952   5 C  s         
    61     10.994580   2 C  px              245     10.242412   6 C  px        
   279      8.797047   7 H  s               371     -8.796898  11 H  s         
    96     -8.746455   3 C  s               188      8.744671   5 C  s         
 
 Vector   64  Occ=0.000000D+00  E= 2.747353D-01
              MO Center= -1.8D-03,  2.6D-02,  6.8D-05, r^2= 1.4D+01
   Bfn.  Coefficient  Atom+Function         Bfn.  Coefficient  Atom+Function  
  ----- ------------  ---------------      ----- ------------  ---------------
   143      8.896574   4 C  s                 5      8.559051   1 C  s         
   154      5.729441   4 C  py              279     -5.646204   7 H  s         
   371     -5.644247  11 H  s               302     -4.653274   8 H  s         
   348     -4.651004  10 H  s               325     -4.354643   9 H  s         
    16     -4.013121   1 C  py              246      3.257515   6 C  py        
 
 Vector   65  Occ=0.000000D+00  E= 2.830073D-01
              MO Center= -1.1D-02,  1.8D-01, -1.7D-05, r^2= 1.6D+01
   Bfn.  Coefficient  Atom+Function         Bfn.  Coefficient  Atom+Function  
  ----- ------------  ---------------      ----- ------------  ---------------
    12      9.528712   1 C  px               97      8.859022   3 C  s         
   189     -8.858729   5 C  s               302      8.111264   8 H  s         
   348     -8.111111  10 H  s                51     -8.016974   2 C  s         
   235      8.012991   6 C  s               199      7.636051   5 C  px        
   107      7.158815   3 C  px              150      6.222184   4 C  px        
 
 Vector   66  Occ=0.000000D+00  E= 2.954146D-01
              MO Center= -3.5D-03,  5.1D-02, -2.4D-05, r^2= 1.6D+01
   Bfn.  Coefficient  Atom+Function         Bfn.  Coefficient  Atom+Function  
  ----- ------------  ---------------      ----- ------------  ---------------
    63      3.202355   2 C  pz              109     -3.189331   3 C  pz        
   201      3.188370   5 C  pz              247     -3.201949   6 C  pz        
   289     -2.276115   7 H  pz              381      2.276014  11 H  pz        
    60      2.255568   2 C  pz              244     -2.255458   6 C  pz        
   312      2.259290   8 H  pz              358     -2.259022  10 H  pz        
 
 Vector   67  Occ=0.000000D+00  E= 2.963658D-01
              MO Center= -6.1D-02,  9.6D-01,  4.1D-04, r^2= 1.4D+01
   Bfn.  Coefficient  Atom+Function         Bfn.  Coefficient  Atom+Function  
  ----- ------------  ---------------      ----- ------------  ---------------
     4     10.410289   1 C  s                59     -5.756720   2 C  py        
   243     -5.649754   6 C  py                5      5.587266   1 C  s         
   105     -5.544770   3 C  py              197     -5.157561   5 C  py        
    16      4.282185   1 C  py              279     -4.194014   7 H  s         
   371     -4.194796  11 H  s                13      3.954974   1 C  py        
 
 Vector   68  Occ=0.000000D+00  E= 3.080938D-01
              MO Center=  1.7D-02, -2.7D-01, -4.6D-04, r^2= 1.5D+01
   Bfn.  Coefficient  Atom+Function         Bfn.  Coefficient  Atom+Function  
  ----- ------------  ---------------      ----- ------------  ---------------
   155      5.181527   4 C  pz               14      4.362860   1 C  pz        
   109     -3.740989   3 C  pz              201     -3.741700   5 C  pz        
   335     -2.712340   9 H  pz               60     -2.051427   2 C  pz        
   244     -2.051362   6 C  pz              152      1.859666   4 C  pz        
    17      1.839131   1 C  pz               29     -1.718998   1 C  d -1      
 
 Vector   69  Occ=0.000000D+00  E= 3.150070D-01
              MO Center=  4.0D-03, -6.7D-02,  1.7D-05, r^2= 9.1D+00
   Bfn.  Coefficient  Atom+Function         Bfn.  Coefficient  Atom+Function  
  ----- ------------  ---------------      ----- ------------  ---------------
   261      1.260500   6 C  d  1             77      1.140325   2 C  d  1      
   169     -1.059291   4 C  d  1             75     -1.027786   2 C  d -1      
   259      0.876775   6 C  d -1            289     -0.730126   7 H  pz        
   381      0.730287  11 H  pz               31      0.651580   1 C  d  1      
    60     -0.342385   2 C  pz              244      0.341903   6 C  pz        
 
 Vector   70  Occ=0.000000D+00  E= 3.283383D-01
              MO Center=  3.9D-02, -6.1D-01,  7.5D-05, r^2= 1.5D+01
   Bfn.  Coefficient  Atom+Function         Bfn.  Coefficient  Atom+Function  
  ----- ------------  ---------------      ----- ------------  ---------------
   142     11.944233   4 C  s                96      8.819349   3 C  s         
   188      8.823219   5 C  s               151     -6.906599   4 C  py        
   325     -5.872205   9 H  s                 4     -5.386909   1 C  s         
     5      5.223609   1 C  s               334     -5.003414   9 H  py        
   302     -4.374345   8 H  s               348     -4.371218  10 H  s         
 
 Vector   71  Occ=0.000000D+00  E= 3.347672D-01
              MO Center= -1.7D-03,  2.7D-02,  1.8D-04, r^2= 7.7D+00
   Bfn.  Coefficient  Atom+Function         Bfn.  Coefficient  Atom+Function  
  ----- ------------  ---------------      ----- ------------  ---------------
   289      2.033366   7 H  pz              381      2.033387  11 H  pz        
   335      1.830641   9 H  pz               14     -1.767960   1 C  pz        
   155     -1.703878   4 C  pz               63     -1.543114   2 C  pz        
   247     -1.543128   6 C  pz               77     -1.511331   2 C  d  1      
   261      1.409764   6 C  d  1            106     -1.288272   3 C  pz        
 
 Vector   72  Occ=0.000000D+00  E= 3.434505D-01
              MO Center=  2.4D-02, -4.0D-01, -4.5D-03, r^2= 1.2D+01
   Bfn.  Coefficient  Atom+Function         Bfn.  Coefficient  Atom+Function  
  ----- ------------  ---------------      ----- ------------  ---------------
   169      3.305882   4 C  d  1             31      2.696606   1 C  d  1      
   312     -2.486254   8 H  pz              358      2.485079  10 H  pz        
   123      2.188199   3 C  d  1            215      2.145640   5 C  d  1      
   106     -1.803181   3 C  pz              198      1.801543   5 C  pz        
   289     -1.419877   7 H  pz              381      1.418752  11 H  pz        
 
 Vector   73  Occ=0.000000D+00  E= 3.449929D-01
              MO Center= -3.5D-02,  5.6D-01, -2.2D-03, r^2= 1.2D+01
   Bfn.  Coefficient  Atom+Function         Bfn.  Coefficient  Atom+Function  
  ----- ------------  ---------------      ----- ------------  ---------------
   143     23.634142   4 C  s               325    -12.971938   9 H  s         
   279     11.936779   7 H  s               371     11.941832  11 H  s         
    51    -11.700951   2 C  s               235    -11.707736   6 C  s         
     5     -7.918802   1 C  s               197     -6.918771   5 C  py        
   105     -6.802129   3 C  py              243     -6.022081   6 C  py        
 
 Vector   74  Occ=0.000000D+00  E= 3.478324D-01
              MO Center=  9.3D-03, -1.5D-01,  4.1D-03, r^2= 1.2D+01
   Bfn.  Coefficient  Atom+Function         Bfn.  Coefficient  Atom+Function  
  ----- ------------  ---------------      ----- ------------  ---------------
    51     21.107179   2 C  s               235    -21.111236   6 C  s         
   302    -11.973705   8 H  s               348     11.977060  10 H  s         
    97     10.972134   3 C  s               189    -10.978955   5 C  s         
   279     -9.790329   7 H  s               371      9.778719  11 H  s         
    12     -8.091556   1 C  px              150     -7.046155   4 C  px        
 
 Vector   75  Occ=0.000000D+00  E= 3.480544D-01
              MO Center=  3.3D-02, -5.2D-01,  3.3D-03, r^2= 1.3D+01
   Bfn.  Coefficient  Atom+Function         Bfn.  Coefficient  Atom+Function  
  ----- ------------  ---------------      ----- ------------  ---------------
   155     -3.963081   4 C  pz               17      3.768951   1 C  pz        
   109      3.551222   3 C  pz              201      3.551634   5 C  pz        
    63     -3.438087   2 C  pz              247     -3.438106   6 C  pz        
   152     -2.976325   4 C  pz              213     -2.325768   5 C  d -1      
   289      2.269298   7 H  pz              381      2.271182  11 H  pz        
 
 Vector   76  Occ=0.000000D+00  E= 3.527129D-01
              MO Center=  3.4D-02, -5.3D-01, -1.6D-04, r^2= 1.4D+01
   Bfn.  Coefficient  Atom+Function         Bfn.  Coefficient  Atom+Function  
  ----- ------------  ---------------      ----- ------------  ---------------
    17      6.396146   1 C  pz               63     -5.862479   2 C  pz        
   247     -5.862294   6 C  pz              109      5.126743   3 C  pz        
   201      5.126462   5 C  pz              155     -4.856166   4 C  pz        
   335      3.963715   9 H  pz               14      3.792105   1 C  pz        
   167      3.080628   4 C  d -1             60     -2.676819   2 C  pz        
 
 Vector   77  Occ=0.000000D+00  E= 3.548594D-01
              MO Center= -2.0D-02,  3.1D-01, -7.0D-04, r^2= 1.5D+01
   Bfn.  Coefficient  Atom+Function         Bfn.  Coefficient  Atom+Function  
  ----- ------------  ---------------      ----- ------------  ---------------
     5     31.194189   1 C  s               143     15.875405   4 C  s         
    51    -15.775376   2 C  s               235    -15.748072   6 C  s         
   151    -11.078076   4 C  py              196     -7.680266   5 C  px        
    50      7.344695   2 C  s               234      7.340282   6 C  s         
    13      7.220302   1 C  py              104      7.241344   3 C  px        
 
 Vector   78  Occ=0.000000D+00  E= 3.600074D-01
              MO Center= -4.8D-02,  7.5D-01,  2.4D-04, r^2= 1.3D+01
   Bfn.  Coefficient  Atom+Function         Bfn.  Coefficient  Atom+Function  
  ----- ------------  ---------------      ----- ------------  ---------------
   289      3.411532   7 H  pz              381     -3.411495  11 H  pz        
    60      3.159874   2 C  pz              244     -3.162308   6 C  pz        
   121     -3.107566   3 C  d -1             77     -3.077910   2 C  d  1      
   259      3.043537   6 C  d -1            213      2.808033   5 C  d -1      
   312     -2.765604   8 H  pz              358      2.764807  10 H  pz        
 
 Vector   79  Occ=0.000000D+00  E= 3.686651D-01
              MO Center=  3.7D-02, -5.6D-01, -1.3D-04, r^2= 1.3D+01
   Bfn.  Coefficient  Atom+Function         Bfn.  Coefficient  Atom+Function  
  ----- ------------  ---------------      ----- ------------  ---------------
    96     10.662321   3 C  s               188     10.669518   5 C  s         
   104     -8.378079   3 C  px              196      8.377732   5 C  px        
     5      7.775085   1 C  s               142     -7.637598   4 C  s         
   212      5.394211   5 C  d -2            258      5.330898   6 C  d -2      
   120     -5.187685   3 C  d -2            242     -5.064221   6 C  px        
 
 Vector   80  Occ=0.000000D+00  E= 3.719128D-01
              MO Center=  1.9D-02, -3.2D-01, -2.2D-04, r^2= 1.3D+01
   Bfn.  Coefficient  Atom+Function         Bfn.  Coefficient  Atom+Function  
  ----- ------------  ---------------      ----- ------------  ---------------
    97      9.891959   3 C  s               189     -9.896212   5 C  s         
    50      9.028739   2 C  s               234     -9.033258   6 C  s         
   279     -5.586655   7 H  s               371      5.575509  11 H  s         
   357      5.240662  10 H  py              311     -5.134630   8 H  py        
   212     -4.866833   5 C  d -2             51     -4.780866   2 C  s         
 
 Vector   81  Occ=0.000000D+00  E= 3.818624D-01
              MO Center=  3.6D-02, -5.7D-01,  3.2D-06, r^2= 1.6D+01
   Bfn.  Coefficient  Atom+Function         Bfn.  Coefficient  Atom+Function  
  ----- ------------  ---------------      ----- ------------  ---------------
   166      9.097419   4 C  d -2            333      7.149602   9 H  px        
   150     -6.629231   4 C  px              216     -6.541087   5 C  d  2      
   124      6.100613   3 C  d  2            279      5.833990   7 H  s         
   371     -5.825317  11 H  s               310      5.061483   8 H  px        
   356      4.991575  10 H  px               96     -4.831002   3 C  s         
 
 Vector   82  Occ=0.000000D+00  E= 3.935315D-01
              MO Center= -2.9D-02,  4.7D-01,  2.0D-04, r^2= 1.5D+01
   Bfn.  Coefficient  Atom+Function         Bfn.  Coefficient  Atom+Function  
  ----- ------------  ---------------      ----- ------------  ---------------
    12     12.337468   1 C  px               51    -11.229519   2 C  s         
   235     11.217263   6 C  s                78     -9.119246   2 C  d  2      
   262      8.772790   6 C  d  2             15     -6.908213   1 C  px        
   216      6.763780   5 C  d  2            124     -5.899490   3 C  d  2      
   150      5.913560   4 C  px              153     -5.913003   4 C  px        
 
 Vector   83  Occ=0.000000D+00  E= 3.958363D-01
              MO Center= -5.2D-02,  8.3D-01,  1.8D-04, r^2= 1.2D+01
   Bfn.  Coefficient  Atom+Function         Bfn.  Coefficient  Atom+Function  
  ----- ------------  ---------------      ----- ------------  ---------------
   152     -7.539012   4 C  pz              106      7.346711   3 C  pz        
   198      7.346296   5 C  pz               60     -6.489409   2 C  pz        
   244     -6.489282   6 C  pz              167     -6.343432   4 C  d -1      
   215      5.120369   5 C  d  1            123     -4.714162   3 C  d  1      
    14      4.586658   1 C  pz              259      4.026358   6 C  d -1      
 
 Vector   84  Occ=0.000000D+00  E= 4.015985D-01
              MO Center= -3.1D-02,  5.0D-01, -7.2D-04, r^2= 1.5D+01
   Bfn.  Coefficient  Atom+Function         Bfn.  Coefficient  Atom+Function  
  ----- ------------  ---------------      ----- ------------  ---------------
     5     51.025548   1 C  s                51    -19.611889   2 C  s         
   235    -19.656179   6 C  s                97    -17.193543   3 C  s         
   189    -17.204636   5 C  s               143     11.519491   4 C  s         
   142    -10.453348   4 C  s                 4     -9.636426   1 C  s         
   325      7.889410   9 H  s                50     -7.772470   2 C  s         
 
 Vector   85  Occ=0.000000D+00  E= 4.053895D-01
              MO Center= -5.6D-03,  1.0D-01, -5.5D-05, r^2= 1.3D+01
   Bfn.  Coefficient  Atom+Function         Bfn.  Coefficient  Atom+Function  
  ----- ------------  ---------------      ----- ------------  ---------------
[...]
     Occ.   21 alpha a   ---  Virt.   27 alpha a   -0.90439 X
     Occ.   21 alpha a   ---  Virt.   38 alpha a    0.12145 X
     Occ.   13 beta  a   ---  Virt.   21 beta  a   -0.05668 X
     Occ.   15 beta  a   ---  Virt.   21 beta  a   -0.10125 X
     Occ.   19 beta  a   ---  Virt.   24 beta  a   -0.22044 X
     Occ.   19 beta  a   ---  Virt.   29 beta  a    0.05008 X
     Occ.   20 beta  a   ---  Virt.   22 beta  a    0.14422 X
  ----------------------------------------------------------------------------
  Root  27         a              0.252044188 a.u.                6.8585 eV 
  <S2> =   1.6609
  ----------------------------------------------------------------------------
     Transition Moments    X -0.00001   Y -0.00000   Z -0.24549
     Transition Moments   XX -0.00004  XY  0.00006  XZ  0.00903
     Transition Moments   YY -0.00012  YZ -0.16996  ZZ -0.00003
     Dipole Oscillator Strength                    0.0101267052
     Electric Quadrupole                           0.0000000025
     Magnetic Dipole                               0.0000000314
     Total Oscillator Strength                     0.0101267391
 
     Occ.   19 alpha a   ---  Virt.   26 alpha a   -0.98252 X
     Occ.   19 alpha a   ---  Virt.   35 alpha a    0.07127 X
     Occ.   19 alpha a   ---  Virt.   36 alpha a    0.07351 X
     Occ.   20 alpha a   ---  Virt.   25 alpha a   -0.11259 X
     Occ.   20 beta  a   ---  Virt.   26 beta  a   -0.05072 X
  ----------------------------------------------------------------------------
  Root  28         a              0.252516361 a.u.                6.8713 eV 
  <S2> =   1.8881
  ----------------------------------------------------------------------------
     Transition Moments    X  0.00004   Y  0.00001   Z -0.00094
     Transition Moments   XX  0.00000  XY -0.00001  XZ  0.39461
     Transition Moments   YY  0.00007  YZ  0.02417  ZZ  0.00002
     Dipole Oscillator Strength                    0.0000001492
     Electric Quadrupole                           0.0000000134
     Magnetic Dipole                               0.0000000096
     Total Oscillator Strength                     0.0000001722
 
     Occ.   19 alpha a   ---  Virt.   25 alpha a   -0.26176 X
     Occ.   20 alpha a   ---  Virt.   26 alpha a   -0.95661 X
     Occ.   20 alpha a   ---  Virt.   35 alpha a    0.06127 X
     Occ.   20 alpha a   ---  Virt.   36 alpha a    0.06505 X
     Occ.   19 beta  a   ---  Virt.   26 beta  a    0.06423 X
  ----------------------------------------------------------------------------
  Root  29         a              0.253873712 a.u.                6.9083 eV 
  <S2> =   1.6192
  ----------------------------------------------------------------------------
     Transition Moments    X  0.00004   Y -0.00002   Z  0.00003
     Transition Moments   XX -0.00002  XY  0.00005  XZ -0.49511
     Transition Moments   YY -0.00010  YZ -0.03120  ZZ -0.00003
     Dipole Oscillator Strength                    0.0000000005
     Electric Quadrupole                           0.0000000214
     Magnetic Dipole                               0.0000000111
     Total Oscillator Strength                     0.0000000330
 
     Occ.   20 alpha a   ---  Virt.   26 alpha a    0.06904 X
     Occ.   19 beta  a   ---  Virt.   26 beta  a    0.98501 X
     Occ.   19 beta  a   ---  Virt.   35 beta  a   -0.05795 X
     Occ.   19 beta  a   ---  Virt.   36 beta  a   -0.07391 X
     Occ.   20 beta  a   ---  Virt.   25 beta  a    0.09889 X
  ----------------------------------------------------------------------------
  Root  30         a              0.254787554 a.u.                6.9331 eV 
  <S2> =   0.7707
  ----------------------------------------------------------------------------
     Transition Moments    X  1.50516   Y  0.09504   Z -0.00002
     Transition Moments   XX  0.02399  XY -0.18778  XZ  0.00003
     Transition Moments   YY -0.02367  YZ -0.00002  ZZ  0.00003
     Dipole Oscillator Strength                    0.3863493376
     Electric Quadrupole                           0.0000000032
     Magnetic Dipole                               0.0000000193
     Total Oscillator Strength                     0.3863493600
 
     Occ.   19 alpha a   ---  Virt.   22 alpha a    0.38019 X
     Occ.   19 alpha a   ---  Virt.   22 alpha a   -0.05316 Y
     Occ.   20 alpha a   ---  Virt.   23 alpha a   -0.42715 X
     Occ.   20 alpha a   ---  Virt.   23 alpha a    0.05113 Y
     Occ.   20 alpha a   ---  Virt.   29 alpha a    0.14175 X
     Occ.   21 alpha a   ---  Virt.   25 alpha a   -0.07638 X
     Occ.   21 alpha a   ---  Virt.   27 alpha a    0.38865 X
     Occ.   13 beta  a   ---  Virt.   21 beta  a   -0.13013 X
     Occ.   15 beta  a   ---  Virt.   21 beta  a   -0.26854 X
     Occ.   19 beta  a   ---  Virt.   24 beta  a   -0.49896 X
     Occ.   19 beta  a   ---  Virt.   29 beta  a    0.14001 X
     Occ.   20 beta  a   ---  Virt.   22 beta  a    0.34849 X
     Occ.   20 beta  a   ---  Virt.   22 beta  a   -0.05616 Y
  ----------------------------------------------------------------------------
  Root  31         a              0.255476662 a.u.                6.9519 eV 
  <S2> =   0.8011
  ----------------------------------------------------------------------------
     Transition Moments    X -0.04032   Y  0.63430   Z  0.00000
     Transition Moments   XX  0.64317  XY -0.07887  XZ -0.00002
     Transition Moments   YY  1.88893  YZ  0.00003  ZZ  0.14600
     Dipole Oscillator Strength                    0.0688023557
     Electric Quadrupole                           0.0000000721
     Magnetic Dipole                               0.0000000000
     Total Oscillator Strength                     0.0688024278
 
     Occ.   19 alpha a   ---  Virt.   23 alpha a   -0.10555 X
     Occ.   20 alpha a   ---  Virt.   22 alpha a   -0.11329 X
     Occ.   21 alpha a   ---  Virt.   26 alpha a   -0.18442 X
     Occ.   21 alpha a   ---  Virt.   28 alpha a    0.91022 X
     Occ.   21 alpha a   ---  Virt.   30 alpha a    0.12668 X
     Occ.   21 alpha a   ---  Virt.   31 alpha a    0.16363 X
     Occ.   21 alpha a   ---  Virt.   48 alpha a   -0.05648 X
     Occ.   16 beta  a   ---  Virt.   21 beta  a   -0.18907 X
     Occ.   19 beta  a   ---  Virt.   22 beta  a   -0.10800 X
     Occ.   20 beta  a   ---  Virt.   24 beta  a   -0.09642 X
  ----------------------------------------------------------------------------
  Root  32         a              0.260790758 a.u.                7.0965 eV 
  <S2> =   0.8001
  ----------------------------------------------------------------------------
     Transition Moments    X -0.00001   Y  0.00001   Z -0.09586
     Transition Moments   XX  0.00001  XY  0.00001  XZ  0.04438
     Transition Moments   YY  0.00003  YZ -0.70490  ZZ -0.00000
     Dipole Oscillator Strength                    0.0015976446
     Electric Quadrupole                           0.0000000471
     Magnetic Dipole                               0.0000000330
     Total Oscillator Strength                     0.0015977247
 
     Occ.   21 alpha a   ---  Virt.   29 alpha a    0.97943 X
     Occ.   21 alpha a   ---  Virt.   33 alpha a    0.18017 X
  ----------------------------------------------------------------------------
  Root  33         a              0.265470746 a.u.                7.2238 eV 
  <S2> =   1.7811
  ----------------------------------------------------------------------------
     Transition Moments    X  0.00001   Y  0.00001   Z -0.00002
     Transition Moments   XX -0.00006  XY  0.00002  XZ  0.54526
     Transition Moments   YY -0.00003  YZ  0.03462  ZZ -0.00004
     Dipole Oscillator Strength                    0.0000000001
     Electric Quadrupole                           0.0000000297
     Magnetic Dipole                               0.0000000005
     Total Oscillator Strength                     0.0000000304
 
     Occ.   20 beta  a   ---  Virt.   27 beta  a    0.99102 X
     Occ.   20 beta  a   ---  Virt.   38 beta  a   -0.09663 X
  ----------------------------------------------------------------------------
  Root  34         a              0.267238858 a.u.                7.2719 eV 
  <S2> =   0.8206
  ----------------------------------------------------------------------------
     Transition Moments    X  0.07560   Y -1.19795   Z  0.00000
     Transition Moments   XX  0.01140  XY -0.04336  XZ  0.00001
     Transition Moments   YY  0.69586  YZ  0.00006  ZZ  0.04334
     Dipole Oscillator Strength                    0.2566900974
     Electric Quadrupole                           0.0000000154
     Magnetic Dipole                               0.0000000000
     Total Oscillator Strength                     0.2566901128
 
     Occ.   17 alpha a   ---  Virt.   23 alpha a   -0.08562 X
     Occ.   19 alpha a   ---  Virt.   23 alpha a    0.30579 X
     Occ.   19 alpha a   ---  Virt.   29 alpha a    0.16106 X
     Occ.   20 alpha a   ---  Virt.   22 alpha a    0.22161 X
     Occ.   21 alpha a   ---  Virt.   28 alpha a    0.29997 X
     Occ.   21 alpha a   ---  Virt.   30 alpha a   -0.43204 X
     Occ.   21 alpha a   ---  Virt.   31 alpha a    0.08041 X
     Occ.   14 beta  a   ---  Virt.   21 beta  a   -0.08767 X
     Occ.   16 beta  a   ---  Virt.   21 beta  a    0.50158 X
     Occ.   19 beta  a   ---  Virt.   22 beta  a    0.22216 X
     Occ.   20 beta  a   ---  Virt.   24 beta  a    0.30800 X
     Occ.   20 beta  a   ---  Virt.   29 beta  a    0.34077 X
  ----------------------------------------------------------------------------
  Root  35         a              0.270689605 a.u.                7.3658 eV 
  <S2> =   2.7056
  ----------------------------------------------------------------------------
     Transition Moments    X -0.00000   Y -0.00001   Z -0.00936
     Transition Moments   XX  0.00001  XY -0.00001  XZ  0.00869
     Transition Moments   YY  0.00002  YZ -0.14700  ZZ -0.00000
     Dipole Oscillator Strength                    0.0000157957
     Electric Quadrupole                           0.0000000023
     Magnetic Dipole                               0.0000000000
     Total Oscillator Strength                     0.0000157980
 
     Occ.   20 alpha a   ---  Virt.   27 alpha a    0.79673 X
     Occ.   20 alpha a   ---  Virt.   38 alpha a   -0.08805 X
     Occ.   19 beta  a   ---  Virt.   27 beta  a   -0.57847 X
     Occ.   19 beta  a   ---  Virt.   38 beta  a    0.06851 X
     Occ.   20 beta  a   ---  Virt.   30 beta  a   -0.05951 X
  ----------------------------------------------------------------------------
  Root  36         a              0.271161131 a.u.                7.3787 eV 
  <S2> =   2.7409
  ----------------------------------------------------------------------------
     Transition Moments    X  0.04833   Y  0.00310   Z -0.00000
     Transition Moments   XX  0.00357  XY -0.02881  XZ  0.00001
     Transition Moments   YY -0.00361  YZ -0.00003  ZZ -0.00002
     Dipole Oscillator Strength                    0.0004239982
     Electric Quadrupole                           0.0000000001
     Magnetic Dipole                               0.0000000018
     Total Oscillator Strength                     0.0004240001
 
     Occ.   17 alpha a   ---  Virt.   22 alpha a    0.59793 X
     Occ.   17 alpha a   ---  Virt.   41 alpha a   -0.05235 X
     Occ.   19 alpha a   ---  Virt.   32 alpha a   -0.08341 X
     Occ.   20 alpha a   ---  Virt.   29 alpha a    0.16435 X
     Occ.   20 alpha a   ---  Virt.   44 alpha a   -0.22715 X
     Occ.   20 alpha a   ---  Virt.   47 alpha a    0.17402 X
     Occ.   17 beta  a   ---  Virt.   22 beta  a   -0.64473 X
     Occ.   17 beta  a   ---  Virt.   41 beta  a    0.05427 X
     Occ.   19 beta  a   ---  Virt.   29 beta  a   -0.10233 X
     Occ.   19 beta  a   ---  Virt.   44 beta  a    0.20050 X
     Occ.   19 beta  a   ---  Virt.   47 beta  a   -0.16655 X
     Occ.   20 beta  a   ---  Virt.   31 beta  a    0.10110 X
  ----------------------------------------------------------------------------
  Root  37         a              0.271692216 a.u.                7.3931 eV 
  <S2> =   0.8192
  ----------------------------------------------------------------------------
     Transition Moments    X -0.00001   Y -0.00002   Z -0.02369
     Transition Moments   XX  0.00005  XY -0.00005  XZ  0.05327
     Transition Moments   YY  0.00003  YZ -0.85927  ZZ -0.00000
     Dipole Oscillator Strength                    0.0001016550
     Electric Quadrupole                           0.0000000792
     Magnetic Dipole                               0.0000000041
     Total Oscillator Strength                     0.0001017383
 
     Occ.   20 alpha a   ---  Virt.   27 alpha a    0.57909 X
     Occ.   19 beta  a   ---  Virt.   27 beta  a    0.80091 X
     Occ.   19 beta  a   ---  Virt.   38 beta  a   -0.07508 X
     Occ.   20 beta  a   ---  Virt.   28 beta  a   -0.09900 X
  ----------------------------------------------------------------------------
  Root  38         a              0.271813833 a.u.                7.3964 eV 
  <S2> =   1.0455
  ----------------------------------------------------------------------------
     Transition Moments    X  0.03286   Y -0.52141   Z  0.00000
     Transition Moments   XX  1.05555  XY  0.11420  XZ -0.00001
     Transition Moments   YY -0.74998  YZ  0.00011  ZZ  0.24101
     Dipole Oscillator Strength                    0.0494615742
     Electric Quadrupole                           0.0000000888
     Magnetic Dipole                               0.0000000000
     Total Oscillator Strength                     0.0494616630
 
     Occ.   17 alpha a   ---  Virt.   23 alpha a   -0.06342 X
     Occ.   19 alpha a   ---  Virt.   23 alpha a    0.09417 X
     Occ.   21 alpha a   ---  Virt.   30 alpha a    0.79748 X
     Occ.   21 alpha a   ---  Virt.   31 alpha a   -0.20464 X
     Occ.   21 alpha a   ---  Virt.   35 alpha a    0.07518 X
     Occ.   21 alpha a   ---  Virt.   40 alpha a   -0.05667 X
     Occ.   14 beta  a   ---  Virt.   21 beta  a   -0.06421 X
     Occ.   16 beta  a   ---  Virt.   21 beta  a    0.19270 X
     Occ.   19 beta  a   ---  Virt.   22 beta  a    0.06006 X
     Occ.   20 beta  a   ---  Virt.   24 beta  a    0.09886 X
     Occ.   20 beta  a   ---  Virt.   29 beta  a    0.48125 X
  ----------------------------------------------------------------------------
  Root  39         a              0.272358394 a.u.                7.4113 eV 
  <S2> =   1.7258
  ----------------------------------------------------------------------------
     Transition Moments    X -0.00001   Y  0.00000   Z  0.00007
     Transition Moments   XX  0.00006  XY -0.00002  XZ -0.54868
     Transition Moments   YY  0.00001  YZ -0.03319  ZZ  0.00003
     Dipole Oscillator Strength                    0.0000000009
     Electric Quadrupole                           0.0000000325
     Magnetic Dipole                               0.0000000013
     Total Oscillator Strength                     0.0000000347
 
     Occ.   19 alpha a   ---  Virt.   27 alpha a   -0.99024 X
     Occ.   19 alpha a   ---  Virt.   38 alpha a    0.09606 X
  ----------------------------------------------------------------------------
  Root  40         a              0.272610719 a.u.                7.4181 eV 
  <S2> =   1.9696
  ----------------------------------------------------------------------------
     Transition Moments    X  0.00001   Y -0.00003   Z -0.04239
     Transition Moments   XX -0.00003  XY -0.00003  XZ  0.02927
     Transition Moments   YY -0.00005  YZ -0.46382  ZZ -0.00001
     Dipole Oscillator Strength                    0.0003266111
     Electric Quadrupole                           0.0000000233
     Magnetic Dipole                               0.0000000045
     Total Oscillator Strength                     0.0003266390
 
     Occ.   19 alpha a   ---  Virt.   28 alpha a    0.11686 X
     Occ.   20 alpha a   ---  Virt.   27 alpha a   -0.10182 X
     Occ.   17 beta  a   ---  Virt.   21 beta  a    0.05490 X
     Occ.   20 beta  a   ---  Virt.   28 beta  a   -0.97369 X
     Occ.   20 beta  a   ---  Virt.   30 beta  a   -0.05205 X
     Occ.   20 beta  a   ---  Virt.   32 beta  a   -0.07562 X
     Occ.   20 beta  a   ---  Virt.   43 beta  a   -0.08136 X
 
              Target root =      1
          Target symmetry = none
      Ground state energy =   -231.646323919885
        Excitation energy =      0.106366858204
     Excited state energy =   -231.539957061681
 
  stored tddft:energy   -231.539957061681     

 Task  times  cpu:     2973.8s     wall:     3065.5s
 
 
                                NWChem Input Module
                                -------------------
 
 
 Summary of allocated global arrays
-----------------------------------
  No active global arrays



                         GA Statistics for process    0
                         ------------------------------

       create   destroy   get      put      acc     scatter   gather  read&inc
calls: 9601     9601     9.92e+06 4.29e+06 2.50e+06 5660        0      328     
number of processes/call 1.32e+00 1.71e+00 1.91e+00 0.00e+00 0.00e+00
bytes total:             8.65e+10 1.17e+10 9.76e+10 6.26e+04 0.00e+00 2.62e+03
bytes remote:            6.27e+10 1.11e+09 9.31e+10 0.00e+00 0.00e+00 0.00e+00
Max memory consumed for GA by this process: 205086464 bytes
 
MA_summarize_allocated_blocks: starting scan ...
MA_summarize_allocated_blocks: scan completed: 0 heap blocks, 0 stack blocks
MA usage statistics:

	allocation statistics:
					      heap	     stack
					      ----	     -----
	current number of blocks	         0	         0
	maximum number of blocks	        20	        52
	current total bytes		         0	         0
	maximum total bytes		   1165984	  68276424
	maximum total K-bytes		      1166	     68277
	maximum total M-bytes		         2	        69
 
 
                                     CITATION
                                     --------
                Please cite the following reference when publishing
                           results obtained with NWChem:
 
                 M. Valiev, E.J. Bylaska, N. Govind, K. Kowalski,
              T.P. Straatsma, H.J.J. van Dam, D. Wang, J. Nieplocha,
                        E. Apra, T.L. Windus, W.A. de Jong
                 "NWChem: a comprehensive and scalable open-source
                  solution for large scale molecular simulations"
                      Comput. Phys. Commun. 181, 1477 (2010)
                           doi:10.1016/j.cpc.2010.04.018
 
                                      AUTHORS
                                      -------
          E. Apra, E. J. Bylaska, W. A. de Jong, N. Govind, K. Kowalski,
       T. P. Straatsma, M. Valiev, H. J. J. van Dam, D. Wang, T. L. Windus,
        J. Hammond, J. Autschbach, K. Bhaskaran-Nair, J. Brabec, K. Lopata,
    S. A. Fischer, S. Krishnamoorthy, M. Jacquelin, W. Ma, M. Klemm, O. Villa,
      Y. Chen, V. Anisimov, F. Aquino, S. Hirata, M. T. Hackler, V. Konjkov,
            D. Mejia-Rodriguez, T. Risthaus, M. Malagoli, A. Marenich,
   A. Otero-de-la-Roza, J. Mullin, P. Nichols, R. Peverati, J. Pittner, Y. Zhao,
        P.-D. Fan, A. Fonari, M. J. Williamson, R. J. Harrison, J. R. Rehr,
      M. Dupuis, D. Silverstein, D. M. A. Smith, J. Nieplocha, V. Tipparaju,
    M. Krishnan, B. E. Van Kuiken, A. Vazquez-Mayagoitia, L. Jensen, M. Swart,
      Q. Wu, T. Van Voorhis, A. A. Auer, M. Nooijen, L. D. Crosby, E. Brown,
      G. Cisneros, G. I. Fann, H. Fruchtl, J. Garza, K. Hirao, R. A. Kendall,
      J. A. Nichols, K. Tsemekhman, K. Wolinski, J. Anchell, D. E. Bernholdt,
      P. Borowski, T. Clark, D. Clerc, H. Dachsel, M. J. O. Deegan, K. Dyall,
    D. Elwood, E. Glendening, M. Gutowski, A. C. Hess, J. Jaffe, B. G. Johnson,
     J. Ju, R. Kobayashi, R. Kutteh, Z. Lin, R. Littlefield, X. Long, B. Meng,
      T. Nakajima, S. Niu, L. Pollack, M. Rosing, K. Glaesemann, G. Sandrone,
      M. Stave, H. Taylor, G. Thomas, J. H. van Lenthe, A. T. Wong, Z. Zhang.

 Total times  cpu:     2973.9s     wall:     3066.5s
