 argument  1 = /storage/home/j/jbb5516/normalModes/mode1301.19-p.nw
 


============================== echo of input deck ==============================
echo
start

title "None"

geometry
C    -0.08736419    1.38831091    0.00000005
C    -1.26714132    0.69192851   -0.00000002
C    -1.16718591   -0.70522904   -0.00000002
C     0.08225307   -1.31603099    0.00000004
C     1.24663990   -0.55208227   -0.00000001
C     1.17089937    0.84395290    0.00000005
H    -2.23360540    1.17792567   -0.00000010
H    -2.06724043   -1.30673605   -0.00000009
H     0.15186341   -2.39531514   -0.00000000
H     2.21521503   -1.03548512   -0.00000013
H     2.06394495    1.45443387   -0.00000010
symmetry c1
end

basis spherical
 * library "aug-cc-pvtz"
end

dft
 direct
 mult 2
 iterations 500
 xc b3lyp
end

tddft
 nroots 40
 notriplet
 algorithm 1
end
task tddft energy
================================================================================


                                         
                                         
 
 
              Northwest Computational Chemistry Package (NWChem) 6.8
              ------------------------------------------------------
 
 
                    Environmental Molecular Sciences Laboratory
                       Pacific Northwest National Laboratory
                                Richland, WA 99352
 
                              Copyright (c) 1994-2017
                       Pacific Northwest National Laboratory
                            Battelle Memorial Institute
 
             NWChem is an open-source computational chemistry package
                        distributed under the terms of the
                      Educational Community License (ECL) 2.0
             A copy of the license is included with this distribution
                              in the LICENSE.TXT file
 
                                  ACKNOWLEDGMENT
                                  --------------

            This software and its documentation were developed at the
            EMSL at Pacific Northwest National Laboratory, a multiprogram
            national laboratory, operated for the U.S. Department of Energy
            by Battelle under Contract Number DE-AC05-76RL01830. Support
            for this work was provided by the Department of Energy Office
            of Biological and Environmental Research, Office of Basic
            Energy Sciences, and the Office of Advanced Scientific Computing.


           Job information
           ---------------

    hostname        = comp-sc-0162.acib.production.int.aci.ics.psu.edu
    program         = /gpfs/group/lxj18/default/jeffprograms/nwchem-6.8.1/bin/LINUX64/nwchem
    date            = Sun Sep 20 15:54:28 2020

    compiled        = Wed_Oct_03_14:08:39_2018
    source          = /gpfs/group/lxj18/default/jeffprograms/nwchem-6.8.1
    nwchem branch   = 6.8.1
    nwchem revision = v6.8-143-gdb0d964
    ga revision     = 5.6.5
    use scalapack   = F
    input           = /storage/home/j/jbb5516/normalModes/mode1301.19-p.nw
    prefix          = mode1301.19-p.
    data base       = ./mode1301.19-p.db
    status          = startup
    nproc           =       20
    time left       =     -1s



           Memory information
           ------------------

    heap     =   13107200 doubles =    100.0 Mbytes
    stack    =   13107197 doubles =    100.0 Mbytes
    global   =   26214400 doubles =    200.0 Mbytes (distinct from heap & stack)
    total    =   52428797 doubles =    400.0 Mbytes
    verify   = yes
    hardfail = no 


           Directory information
           ---------------------
 
  0 permanent = .
  0 scratch   = .
 
 
 
 
                                NWChem Input Module
                                -------------------
 
 
                                       None
                                       ----

 Scaling coordinates for geometry "geometry" by  1.889725989
 (inverse scale =  0.529177249)

 Turning off AUTOSYM since
 SYMMETRY directive was detected!
 

          ------
          auto-z
          ------
 
 
                             Geometry "geometry" -> ""
                             -------------------------
 
 Output coordinates in angstroms (scale by  1.889725989 to convert to a.u.)
 
  No.       Tag          Charge          X              Y              Z
 ---- ---------------- ---------- -------------- -------------- --------------
    1 C                    6.0000    -0.08733451     1.38831278     0.00000005
    2 C                    6.0000    -1.26711164     0.69193038    -0.00000002
    3 C                    6.0000    -1.16715623    -0.70522717    -0.00000002
    4 C                    6.0000     0.08228275    -1.31602912     0.00000004
    5 C                    6.0000     1.24666958    -0.55208040    -0.00000001
    6 C                    6.0000     1.17092905     0.84395477     0.00000005
    7 H                    1.0000    -2.23357572     1.17792754    -0.00000010
    8 H                    1.0000    -2.06721075    -1.30673418    -0.00000009
    9 H                    1.0000     0.15189309    -2.39531327    -0.00000000
   10 H                    1.0000     2.21524471    -1.03548325    -0.00000013
   11 H                    1.0000     2.06397463     1.45443574    -0.00000010
 
      Atomic Mass 
      ----------- 
 
      C                 12.000000
      H                  1.007825
 

 Effective nuclear repulsion energy (a.u.)     195.0639962256

            Nuclear Dipole moment (a.u.) 
            ----------------------------
        X                 Y               Z
 ---------------- ---------------- ----------------
    -0.0000000000     0.0000000000     0.0000000000
 


                                Z-matrix (autoz)
                                -------- 

 Units are Angstrom for bonds and degrees for angles
 
      Type          Name      I     J     K     L     M      Value
      ----------- --------  ----- ----- ----- ----- ----- ----------
    1 Stretch                  1     2                       1.36997
    2 Stretch                  1     6                       1.37097
    3 Stretch                  2     3                       1.40073
    4 Stretch                  2     7                       1.08178
    5 Stretch                  3     4                       1.39075
    6 Stretch                  3     8                       1.08255
    7 Stretch                  4     5                       1.39263
    8 Stretch                  4     9                       1.08153
    9 Stretch                  5     6                       1.39809
   10 Stretch                  5    10                       1.08250
   11 Stretch                  6    11                       1.08177
   12 Bend                     1     2     3               116.45983
   13 Bend                     1     2     7               122.75205
   14 Bend                     1     6     5               116.50006
   15 Bend                     1     6    11               122.24912
   16 Bend                     2     1     6               126.05351
   17 Bend                     2     3     4               120.14429
   18 Bend                     2     3     8               119.66275
   19 Bend                     3     2     7               120.78812
   20 Bend                     3     4     5               120.67910
   21 Bend                     3     4     9               119.74249
   22 Bend                     4     3     8               120.19296
   23 Bend                     4     5     6               120.16321
   24 Bend                     4     5    10               120.20814
   25 Bend                     5     4     9               119.57841
   26 Bend                     5     6    11               121.25081
   27 Bend                     6     5    10               119.62865
   28 Torsion                  1     2     3     4           0.00000
   29 Torsion                  1     2     3     8        -180.00000
   30 Torsion                  1     6     5     4           0.00000
   31 Torsion                  1     6     5    10         180.00000
   32 Torsion                  2     1     6     5           0.00000
   33 Torsion                  2     1     6    11         180.00000
   34 Torsion                  2     3     4     5           0.00000
   35 Torsion                  2     3     4     9        -180.00000
   36 Torsion                  3     2     1     6           0.00000
   37 Torsion                  3     4     5     6           0.00000
   38 Torsion                  3     4     5    10        -180.00000
   39 Torsion                  4     3     2     7         180.00000
   40 Torsion                  4     5     6    11        -180.00000
   41 Torsion                  5     4     3     8         180.00000
   42 Torsion                  6     1     2     7        -180.00000
   43 Torsion                  6     5     4     9        -180.00000
   44 Torsion                  7     2     3     8           0.00000
   45 Torsion                  8     3     4     9           0.00000
   46 Torsion                  9     4     5    10           0.00000
   47 Torsion                 10     5     6    11           0.00000
 
 
            XYZ format geometry
            -------------------
    11
 geometry
 C                    -0.08733451     1.38831278     0.00000005
 C                    -1.26711164     0.69193038    -0.00000002
 C                    -1.16715623    -0.70522717    -0.00000002
 C                     0.08228275    -1.31602912     0.00000004
 C                     1.24666958    -0.55208040    -0.00000001
 C                     1.17092905     0.84395477     0.00000005
 H                    -2.23357572     1.17792754    -0.00000010
 H                    -2.06721075    -1.30673418    -0.00000009
 H                     0.15189309    -2.39531327    -0.00000000
 H                     2.21524471    -1.03548325    -0.00000013
 H                     2.06397463     1.45443574    -0.00000010
 
 ==============================================================================
                                internuclear distances
 ------------------------------------------------------------------------------
       center one      |      center two      | atomic units |  angstroms
 ------------------------------------------------------------------------------
    2 C                |   1 C                |     2.58887  |     1.36997
    3 C                |   2 C                |     2.64699  |     1.40073
    4 C                |   3 C                |     2.62813  |     1.39075
    5 C                |   4 C                |     2.63169  |     1.39263
    6 C                |   1 C                |     2.59075  |     1.37097
    6 C                |   5 C                |     2.64200  |     1.39809
    7 H                |   2 C                |     2.04427  |     1.08178
    8 H                |   3 C                |     2.04572  |     1.08255
    9 H                |   4 C                |     2.04379  |     1.08153
   10 H                |   5 C                |     2.04564  |     1.08250
   11 H                |   6 C                |     2.04424  |     1.08177
 ------------------------------------------------------------------------------
                         number of included internuclear distances:         11
 ==============================================================================



 ==============================================================================
                                 internuclear angles
 ------------------------------------------------------------------------------
        center 1       |       center 2       |       center 3       |  degrees
 ------------------------------------------------------------------------------
    2 C                |   1 C                |   6 C                |   126.05
    1 C                |   2 C                |   3 C                |   116.46
    1 C                |   2 C                |   7 H                |   122.75
    3 C                |   2 C                |   7 H                |   120.79
    2 C                |   3 C                |   4 C                |   120.14
    2 C                |   3 C                |   8 H                |   119.66
    4 C                |   3 C                |   8 H                |   120.19
    3 C                |   4 C                |   5 C                |   120.68
    3 C                |   4 C                |   9 H                |   119.74
    5 C                |   4 C                |   9 H                |   119.58
    4 C                |   5 C                |   6 C                |   120.16
    4 C                |   5 C                |  10 H                |   120.21
    6 C                |   5 C                |  10 H                |   119.63
    1 C                |   6 C                |   5 C                |   116.50
    1 C                |   6 C                |  11 H                |   122.25
    5 C                |   6 C                |  11 H                |   121.25
 ------------------------------------------------------------------------------
                            number of included internuclear angles:         16
 ==============================================================================





 Summary of "ao basis" -> "" (spherical)
 ------------------------------------------------------------------------------
       Tag                 Description            Shells   Functions and Types
 ---------------- ------------------------------  ------  ---------------------
 *                        aug-cc-pvtz                 on all atoms 


 
                                 NWChem DFT Module
                                 -----------------
 
 
                                       None
 
 
                      Basis "ao basis" -> "ao basis" (spherical)
                      -----
  C (Carbon)
  ----------
            Exponent  Coefficients 
       -------------- ---------------------------------------------------------
  1 S  8.23600000E+03  0.000531
  1 S  1.23500000E+03  0.004108
  1 S  2.80800000E+02  0.021087
  1 S  7.92700000E+01  0.081853
  1 S  2.55900000E+01  0.234817
  1 S  8.99700000E+00  0.434401
  1 S  3.31900000E+00  0.346129
  1 S  3.64300000E-01 -0.008983
 
  2 S  8.23600000E+03 -0.000113
  2 S  1.23500000E+03 -0.000878
  2 S  2.80800000E+02 -0.004540
  2 S  7.92700000E+01 -0.018133
  2 S  2.55900000E+01 -0.055760
  2 S  8.99700000E+00 -0.126895
  2 S  3.31900000E+00 -0.170352
  2 S  3.64300000E-01  0.598684
 
  3 S  9.05900000E-01  1.000000
 
  4 S  1.28500000E-01  1.000000
 
  5 S  4.40200000E-02  1.000000
 
  6 P  1.87100000E+01  0.014031
  6 P  4.13300000E+00  0.086866
  6 P  1.20000000E+00  0.290216
 
  7 P  3.82700000E-01  1.000000
 
  8 P  1.20900000E-01  1.000000
 
  9 P  3.56900000E-02  1.000000
 
 10 D  1.09700000E+00  1.000000
 
 11 D  3.18000000E-01  1.000000
 
 12 D  1.00000000E-01  1.000000
 
 13 F  7.61000000E-01  1.000000
 
 14 F  2.68000000E-01  1.000000
 
  H (Hydrogen)
  ------------
            Exponent  Coefficients 
       -------------- ---------------------------------------------------------
  1 S  3.38700000E+01  0.006068
  1 S  5.09500000E+00  0.045308
  1 S  1.15900000E+00  0.202822
 
  2 S  3.25800000E-01  1.000000
 
  3 S  1.02700000E-01  1.000000
 
  4 S  2.52600000E-02  1.000000
 
  5 P  1.40700000E+00  1.000000
 
  6 P  3.88000000E-01  1.000000
 
  7 P  1.02000000E-01  1.000000
 
  8 D  1.05700000E+00  1.000000
 
  9 D  2.47000000E-01  1.000000
 


 Summary of "ao basis" -> "ao basis" (spherical)
 ------------------------------------------------------------------------------
       Tag                 Description            Shells   Functions and Types
 ---------------- ------------------------------  ------  ---------------------
 C                        aug-cc-pvtz               14       46   5s4p3d2f
 H                        aug-cc-pvtz                9       23   4s3p2d




 Summary of "ao basis" -> "ao basis" (spherical)
 ------------------------------------------------------------------------------
       Tag                 Description            Shells   Functions and Types
 ---------------- ------------------------------  ------  ---------------------
 C                        aug-cc-pvtz               14       46   5s4p3d2f
 H                        aug-cc-pvtz                9       23   4s3p2d


  Caching 1-el integrals 
 
            General Information
            -------------------
          SCF calculation type: DFT
          Wavefunction type:  spin polarized.
          No. of atoms     :    11
          No. of electrons :    41
           Alpha electrons :    21
            Beta electrons :    20
          Charge           :     0
          Spin multiplicity:     2
          Use of symmetry is: off; symmetry adaption is: off
          Maximum number of iterations: 500
          This is a Direct SCF calculation.
          AO basis - number of functions:   391
                     number of shells:   129
          Convergence on energy requested:  1.00D-06
          Convergence on density requested:  1.00D-05
          Convergence on gradient requested:  5.00D-04
 
              XC Information
              --------------
                         B3LYP Method XC Potential
                     Hartree-Fock (Exact) Exchange  0.200          
                        Slater Exchange Functional  0.800 local    
                    Becke 1988 Exchange Functional  0.720 non-local
              Lee-Yang-Parr Correlation Functional  0.810          
                  VWN I RPA Correlation Functional  0.190 local    
 
             Grid Information
             ----------------
          Grid used for XC integration:  medium    
          Radial quadrature: Mura-Knowles        
          Angular quadrature: Lebedev. 
          Tag              B.-S. Rad. Rad. Pts. Rad. Cut. Ang. Pts.
          ---              ---------- --------- --------- ---------
          C                   0.70       49          15.0       434
          H                   0.35       45          17.0       434
          Grid pruning is: on 
          Number of quadrature shells:   519
          Spatial weights used:  Erf1
 
          Convergence Information
          -----------------------
          Convergence aids based upon iterative change in 
          total energy or number of iterations. 
          Levelshifting, if invoked, occurs when the 
          HOMO/LUMO gap drops below (HL_TOL):  1.00D-02
          DIIS, if invoked, will attempt to extrapolate 
          using up to (NFOCK): 10 stored Fock matrices.

                    Damping( 0%)  Levelshifting(0.5)       DIIS
                  --------------- ------------------- ---------------
          dE  on:    start            ASAP                start   
          dE off:    2 iters        500 iters           500 iters 

 
      Screening Tolerance Information
      -------------------------------
          Density screening/tol_rho:  1.00D-10
          AO Gaussian exp screening on grid/accAOfunc:  14
          CD Gaussian exp screening on grid/accCDfunc:  20
          XC Gaussian exp screening on grid/accXCfunc:  20
          Schwarz screening/accCoul:  1.00D-08

 
 WARNING : Found     7 linear dependencies 
 S eigenvalue threshold:     1.00000E-05
 Smallest S eigenvalue :     1.46395E-06
 Largest  S eigenvalue :     7.76596E-06
 

 !! The overlap matrix has   7 vectors deemed linearly dependent with
    eigenvalues:
 1.46D-06 2.24D-06 2.83D-06 3.54D-06 5.28D-06 5.95D-06 7.77D-06
 
 
      Superposition of Atomic Density Guess
      -------------------------------------
 
 Sum of atomic energies:        -228.52307259
 
      Non-variational initial energy
      ------------------------------

 Total energy =    -232.667208
 1-e energy   =    -691.328503
 2-e energy   =     263.597298
 HOMO         =      -0.183326
 LUMO         =      -0.022267
 
   Time after variat. SCF:     10.1
   Time prior to 1st pass:     10.1

 Grid_pts file          = ./mode1301.19-p.gridpts.00
 Record size in doubles =  12289        No. of grid_pts per rec  =   3070
 Max. records in memory =      6        Max. recs in file   = 220150829

 Grid integrated density:      40.999766397984
 Requested integration accuracy:   0.10E-05

           Memory utilization after 1st SCF pass: 
           Heap Space remaining (MW):       12.96            12961280
          Stack Space remaining (MW):       13.10            13103676

   convergence    iter        energy       DeltaE   RMS-Dens  Diis-err    time
 ---------------- ----- ----------------- --------- --------- ---------  ------
 d= 0,ls=0.0,diis     1   -231.5816008881 -4.27D+02  6.27D-02  2.09D-01    20.9
                                                     7.08D-02  1.96D-01
 d= 0,ls=0.0,diis     2   -231.6398006756 -5.82D-02  6.18D-02  1.22D-02    31.6
                                                     6.96D-02  1.25D-02
 d= 0,ls=0.0,diis     3   -231.6446071096 -4.81D-03  1.28D-03  3.44D-03    42.3
                                                     1.39D-03  3.50D-03
 d= 0,ls=0.0,diis     4   -231.6457586776 -1.15D-03  2.04D-04  1.13D-03    53.0
                                                     2.08D-04  1.07D-03
 d= 0,ls=0.0,diis     5   -231.6462805631 -5.22D-04  3.40D-05  4.31D-05    63.7
                                                     3.13D-05  4.91D-05
  Resetting Diis
 d= 0,ls=0.0,diis     6   -231.6463084839 -2.79D-05  1.10D-05  8.33D-06    74.4
                                                     1.06D-05  6.81D-06
 d= 0,ls=0.0,diis     7   -231.6463148446 -6.36D-06  7.52D-06  2.27D-06    85.1
                                                     6.75D-06  2.50D-06
 d= 0,ls=0.0,diis     8   -231.6463156984 -8.54D-07  3.12D-06  6.07D-06    95.8
                                                     2.81D-06  5.44D-06


         Total DFT energy =     -231.646315698380
      One electron energy =     -696.564920046902
           Coulomb energy =      304.263995635457
    Exchange-Corr. energy =      -34.409387512565
 Nuclear repulsion energy =      195.063996225630

 Numeric. integr. density =       40.999984455835

     Total iterative time =     85.7s


 
                    DFT Final Alpha Molecular Orbital Analysis
                    ------------------------------------------
 
 Vector    1  Occ=1.000000D+00  E=-1.020519D+01
              MO Center= -8.7D-02,  1.4D+00,  4.8D-08, r^2= 3.0D-02
   Bfn.  Coefficient  Atom+Function         Bfn.  Coefficient  Atom+Function  
  ----- ------------  ---------------      ----- ------------  ---------------
     1      0.984156   1 C  s                 3      0.058847   1 C  s         
   234     -0.038546   6 C  s                50     -0.038229   2 C  s         
   371      0.038214  11 H  s               143      0.037887   4 C  s         
   279      0.037679   7 H  s                51     -0.031195   2 C  s         
   235     -0.030161   6 C  s                47      0.025670   2 C  s         
 
 Vector    2  Occ=1.000000D+00  E=-1.019186D+01
              MO Center=  1.1D+00, -5.0D-01, -1.3D-08, r^2= 3.7D-01
   Bfn.  Coefficient  Atom+Function         Bfn.  Coefficient  Atom+Function  
  ----- ------------  ---------------      ----- ------------  ---------------
   185      0.941178   5 C  s                93      0.211070   3 C  s         
   231      0.198980   6 C  s               142     -0.082877   4 C  s         
   187      0.056219   5 C  s               348      0.055911  10 H  s         
   139      0.050522   4 C  s                50      0.046916   2 C  s         
   325      0.043001   9 H  s               279     -0.037381   7 H  s         
 
 Vector    3  Occ=1.000000D+00  E=-1.019182D+01
              MO Center= -1.1D+00, -6.3D-01, -2.3D-08, r^2= 3.9D-01
   Bfn.  Coefficient  Atom+Function         Bfn.  Coefficient  Atom+Function  
  ----- ------------  ---------------      ----- ------------  ---------------
    93      0.937764   3 C  s                47      0.216521   2 C  s         
   185     -0.206526   5 C  s               231     -0.061026   6 C  s         
   302      0.061173   8 H  s               234      0.059760   6 C  s         
    95      0.055940   3 C  s               142     -0.054378   4 C  s         
   235      0.049386   6 C  s               371     -0.049364  11 H  s         
 
 Vector    4  Occ=1.000000D+00  E=-1.019046D+01
              MO Center= -1.2D+00,  6.3D-01, -2.3D-08, r^2= 1.5D-01
   Bfn.  Coefficient  Atom+Function         Bfn.  Coefficient  Atom+Function  
  ----- ------------  ---------------      ----- ------------  ---------------
    47      0.958921   2 C  s                93     -0.213718   3 C  s         
   231      0.071837   6 C  s               279      0.058777   7 H  s         
    49      0.055841   2 C  s               189      0.036735   5 C  s         
   143      0.034326   4 C  s               188      0.034127   5 C  s         
     4     -0.031701   1 C  s                51     -0.030349   2 C  s         
 
 Vector    5  Occ=1.000000D+00  E=-1.019040D+01
              MO Center=  1.2D+00,  7.8D-01,  4.5D-08, r^2= 1.4D-01
   Bfn.  Coefficient  Atom+Function         Bfn.  Coefficient  Atom+Function  
  ----- ------------  ---------------      ----- ------------  ---------------
   231      0.960744   6 C  s               185     -0.204955   5 C  s         
    47     -0.064001   2 C  s               371      0.058082  11 H  s         
   233      0.055850   6 C  s                97      0.042211   3 C  s         
    96      0.036334   3 C  s               189     -0.034476   5 C  s         
    12     -0.033397   1 C  px              188     -0.032759   5 C  s         
 
 Vector    6  Occ=1.000000D+00  E=-1.018448D+01
              MO Center=  8.2D-02, -1.3D+00,  3.9D-08, r^2= 3.5D-02
   Bfn.  Coefficient  Atom+Function         Bfn.  Coefficient  Atom+Function  
  ----- ------------  ---------------      ----- ------------  ---------------
   139      0.984215   4 C  s               141      0.057789   4 C  s         
   188     -0.046127   5 C  s               325      0.045943   9 H  s         
    96     -0.045655   3 C  s               143     -0.043448   4 C  s         
    93     -0.040837   3 C  s                 4      0.040410   1 C  s         
   185     -0.040056   5 C  s               151      0.036007   4 C  py        
 
 Vector    7  Occ=1.000000D+00  E=-8.725022D-01
              MO Center= -4.1D-03,  9.9D-02,  4.9D-09, r^2= 2.0D+00
   Bfn.  Coefficient  Atom+Function         Bfn.  Coefficient  Atom+Function  
  ----- ------------  ---------------      ----- ------------  ---------------
     2      0.213898   1 C  s                48      0.202386   2 C  s         
   232      0.203076   6 C  s                94      0.195306   3 C  s         
   186      0.195793   5 C  s               140      0.188332   4 C  s         
    50      0.090279   2 C  s               234      0.090087   6 C  s         
    96      0.088099   3 C  s               188      0.088171   5 C  s         
 
 Vector    8  Occ=1.000000D+00  E=-7.627870D-01
              MO Center= -6.1D-03,  1.0D-01,  1.9D-09, r^2= 2.8D+00
   Bfn.  Coefficient  Atom+Function         Bfn.  Coefficient  Atom+Function  
  ----- ------------  ---------------      ----- ------------  ---------------
   232     -0.252229   6 C  s                48      0.249834   2 C  s         
    94      0.244821   3 C  s               186     -0.242476   5 C  s         
   234     -0.147489   6 C  s                50      0.144945   2 C  s         
   371      0.130248  11 H  s               279     -0.128551   7 H  s         
   150     -0.115452   4 C  px              189     -0.111303   5 C  s         
 
 Vector    9  Occ=1.000000D+00  E=-7.537729D-01
              MO Center=  7.7D-03, -1.5D-01, -2.7D-08, r^2= 2.6D+00
   Bfn.  Coefficient  Atom+Function         Bfn.  Coefficient  Atom+Function  
  ----- ------------  ---------------      ----- ------------  ---------------
   140     -0.301116   4 C  s                 2      0.278296   1 C  s         
    48      0.150504   2 C  s               186     -0.150428   5 C  s         
    94     -0.146972   3 C  s               142     -0.147380   4 C  s         
   232      0.145848   6 C  s               188     -0.106359   5 C  s         
     4      0.102949   1 C  s                96     -0.103363   3 C  s         
 
 Vector   10  Occ=1.000000D+00  E=-6.187733D-01
              MO Center=  2.1D-03,  3.9D-02, -1.0D-08, r^2= 3.6D+00
   Bfn.  Coefficient  Atom+Function         Bfn.  Coefficient  Atom+Function  
  ----- ------------  ---------------      ----- ------------  ---------------
   186      0.209497   5 C  s                94     -0.207828   3 C  s         
    48      0.199799   2 C  s               232     -0.198945   6 C  s         
    50      0.182936   2 C  s               234     -0.183813   6 C  s         
   188      0.148857   5 C  s                96     -0.145127   3 C  s         
     6     -0.127195   1 C  px              144      0.117002   4 C  px        
 
 Vector   11  Occ=1.000000D+00  E=-6.035758D-01
              MO Center=  2.3D-05, -8.6D-02, -3.1D-08, r^2= 3.5D+00
   Bfn.  Coefficient  Atom+Function         Bfn.  Coefficient  Atom+Function  
  ----- ------------  ---------------      ----- ------------  ---------------
   142      0.258345   4 C  s                 2      0.239054   1 C  s         
   140      0.218591   4 C  s                 4      0.198644   1 C  s         
    94     -0.139692   3 C  s               186     -0.137186   5 C  s         
   234     -0.123734   6 C  s                50     -0.121691   2 C  s         
    96     -0.120028   3 C  s               188     -0.118512   5 C  s         
 
 Vector   12  Occ=1.000000D+00  E=-5.277746D-01
              MO Center=  1.3D-02, -1.5D-01, -1.1D-08, r^2= 4.1D+00
   Bfn.  Coefficient  Atom+Function         Bfn.  Coefficient  Atom+Function  
  ----- ------------  ---------------      ----- ------------  ---------------
   148      0.159306   4 C  py              145      0.138850   4 C  py        
   324     -0.126837   9 H  s                55      0.105419   2 C  px        
   240     -0.105505   6 C  py              323     -0.100398   9 H  s         
   237     -0.096764   6 C  py              193     -0.094276   5 C  px        
   278     -0.094276   7 H  s               370     -0.094648  11 H  s         
 
 Vector   13  Occ=1.000000D+00  E=-4.646136D-01
              MO Center= -5.7D-02,  9.3D-02, -6.3D-09, r^2= 2.8D+00
   Bfn.  Coefficient  Atom+Function         Bfn.  Coefficient  Atom+Function  
  ----- ------------  ---------------      ----- ------------  ---------------
     9      0.186120   1 C  px                6      0.172666   1 C  px        
   147      0.169382   4 C  px              144      0.156330   4 C  px        
    55     -0.135785   2 C  px              102      0.132618   3 C  py        
    56     -0.128874   2 C  py              193     -0.124255   5 C  px        
    52     -0.122022   2 C  px              194     -0.121739   5 C  py        
 
 Vector   14  Occ=1.000000D+00  E=-4.631333D-01
              MO Center=  5.5D-02, -1.5D-01, -3.6D-08, r^2= 4.7D+00
   Bfn.  Coefficient  Atom+Function         Bfn.  Coefficient  Atom+Function  
  ----- ------------  ---------------      ----- ------------  ---------------
     2      0.173945   1 C  s               301      0.138552   8 H  s         
   101     -0.137750   3 C  px              347      0.130980  10 H  s         
    98     -0.127455   3 C  px              140     -0.127527   4 C  s         
   104     -0.122402   3 C  px              188      0.120186   5 C  s         
   239     -0.117700   6 C  px              370     -0.114312  11 H  s         
 
 Vector   15  Occ=1.000000D+00  E=-4.400175D-01
              MO Center= -6.9D-03,  2.1D-01, -2.5D-08, r^2= 4.0D+00
   Bfn.  Coefficient  Atom+Function         Bfn.  Coefficient  Atom+Function  
  ----- ------------  ---------------      ----- ------------  ---------------
   240      0.144502   6 C  py              102      0.138759   3 C  py        
   237      0.133411   6 C  py              370      0.131788  11 H  s         
   278     -0.131022   7 H  s                55      0.129184   2 C  px        
    99      0.129670   3 C  py               56     -0.128301   2 C  py        
   194     -0.127273   5 C  py              191     -0.120373   5 C  py        
 
 Vector   16  Occ=1.000000D+00  E=-3.990978D-01
              MO Center=  4.0D-02, -7.8D-01, -9.9D-09, r^2= 3.3D+00
   Bfn.  Coefficient  Atom+Function         Bfn.  Coefficient  Atom+Function  
  ----- ------------  ---------------      ----- ------------  ---------------
   148      0.233505   4 C  py              145      0.209144   4 C  py        
   324     -0.198449   9 H  s               151      0.172777   4 C  py        
   323     -0.153995   9 H  s                10      0.138524   1 C  py        
    13      0.120982   1 C  py              240      0.114071   6 C  py        
    56      0.110576   2 C  py                7      0.107862   1 C  py        
 
 Vector   17  Occ=1.000000D+00  E=-3.837243D-01
              MO Center= -5.7D-03,  1.2D-01, -5.8D-08, r^2= 2.7D+00
   Bfn.  Coefficient  Atom+Function         Bfn.  Coefficient  Atom+Function  
  ----- ------------  ---------------      ----- ------------  ---------------
    11      0.173060   1 C  pz               57      0.156429   2 C  pz        
   241      0.156854   6 C  pz              103      0.151892   3 C  pz        
   195      0.152234   5 C  pz              149      0.146160   4 C  pz        
     8      0.136557   1 C  pz               54      0.125760   2 C  pz        
   238      0.126100   6 C  pz              100      0.121492   3 C  pz        
 
 Vector   18  Occ=1.000000D+00  E=-3.660187D-01
              MO Center=  1.5D-02, -1.4D-01, -2.8D-08, r^2= 4.1D+00
   Bfn.  Coefficient  Atom+Function         Bfn.  Coefficient  Atom+Function  
  ----- ------------  ---------------      ----- ------------  ---------------
   147     -0.169296   4 C  px              101      0.164709   3 C  px        
   193      0.165407   5 C  px              144     -0.159826   4 C  px        
     9      0.149389   1 C  px               98      0.149086   3 C  px        
   190      0.149440   5 C  px                6      0.141619   1 C  px        
   196      0.135892   5 C  px              104      0.133081   3 C  px        
 
 Vector   19  Occ=1.000000D+00  E=-2.685176D-01
              MO Center= -7.2D-03, -1.8D-02,  8.1D-08, r^2= 3.0D+00
   Bfn.  Coefficient  Atom+Function         Bfn.  Coefficient  Atom+Function  
  ----- ------------  ---------------      ----- ------------  ---------------
    11      0.243844   1 C  pz              149     -0.238426   4 C  pz        
     8      0.191822   1 C  pz              146     -0.190563   4 C  pz        
    14      0.175249   1 C  pz              152     -0.171577   4 C  pz        
   103     -0.142473   3 C  pz              241      0.130706   6 C  pz        
   100     -0.113862   3 C  pz              195     -0.109082   5 C  pz        
 
 Vector   20  Occ=1.000000D+00  E=-2.679218D-01
              MO Center=  2.7D-03,  6.4D-02,  2.8D-07, r^2= 3.1D+00
   Bfn.  Coefficient  Atom+Function         Bfn.  Coefficient  Atom+Function  
  ----- ------------  ---------------      ----- ------------  ---------------
   195     -0.216387   5 C  pz               57      0.212790   2 C  pz        
   103      0.196229   3 C  pz              241     -0.194670   6 C  pz        
   192     -0.172470   5 C  pz               54      0.170307   2 C  pz        
    60      0.156625   2 C  pz              100      0.156349   3 C  pz        
   198     -0.156205   5 C  pz              238     -0.155893   6 C  pz        
 
 Vector   21  Occ=1.000000D+00  E=-2.483363D-01
              MO Center= -8.3D-02,  1.3D+00,  8.3D-08, r^2= 2.3D+00
   Bfn.  Coefficient  Atom+Function         Bfn.  Coefficient  Atom+Function  
  ----- ------------  ---------------      ----- ------------  ---------------
    10      0.385950   1 C  py               13      0.337734   1 C  py        
     5      0.335446   1 C  s                 7      0.299361   1 C  py        
     4      0.279457   1 C  s                 2      0.138447   1 C  s         
   243     -0.135984   6 C  py               59     -0.134210   2 C  py        
   102      0.112716   3 C  py              194      0.111908   5 C  py        
 
 Vector   22  Occ=0.000000D+00  E=-2.605698D-02
              MO Center= -2.2D-03,  6.5D-02, -1.1D-06, r^2= 4.3D+00
   Bfn.  Coefficient  Atom+Function         Bfn.  Coefficient  Atom+Function  
  ----- ------------  ---------------      ----- ------------  ---------------
   201      0.321690   5 C  pz              109     -0.318754   3 C  pz        
    63      0.314879   2 C  pz              247     -0.313277   6 C  pz        
    60      0.227373   2 C  pz              244     -0.226049   6 C  pz        
   198      0.224786   5 C  pz              106     -0.223154   3 C  pz        
    57      0.219287   2 C  pz              195      0.217769   5 C  pz        
 
 Vector   23  Occ=0.000000D+00  E=-1.861743D-02
              MO Center= -3.7D-04, -4.7D-02, -4.1D-06, r^2= 4.3D+00
   Bfn.  Coefficient  Atom+Function         Bfn.  Coefficient  Atom+Function  
  ----- ------------  ---------------      ----- ------------  ---------------
   155      0.439247   4 C  pz               17      0.373855   1 C  pz        
   152      0.273708   4 C  pz               11      0.259156   1 C  pz        
   149      0.250612   4 C  pz               14      0.240769   1 C  pz        
   109     -0.229183   3 C  pz              201     -0.223692   5 C  pz        
     8      0.200858   1 C  pz              247     -0.199347   6 C  pz        
 
 Vector   24  Occ=0.000000D+00  E=-1.011840D-02
              MO Center=  5.9D-02, -9.6D-01, -2.2D-06, r^2= 2.0D+01
   Bfn.  Coefficient  Atom+Function         Bfn.  Coefficient  Atom+Function  
  ----- ------------  ---------------      ----- ------------  ---------------
     5      1.445399   1 C  s               279     -0.974775   7 H  s         
   371     -0.977750  11 H  s               326     -0.742079   9 H  s         
   303     -0.730765   8 H  s               349     -0.729933  10 H  s         
   302     -0.648975   8 H  s               348     -0.651217  10 H  s         
   325     -0.588078   9 H  s                51      0.564054   2 C  s         
 
 Vector   25  Occ=0.000000D+00  E= 4.377941D-03
              MO Center=  1.4D-02, -2.6D-01, -9.3D-06, r^2= 2.7D+01
   Bfn.  Coefficient  Atom+Function         Bfn.  Coefficient  Atom+Function  
  ----- ------------  ---------------      ----- ------------  ---------------
    51      2.735521   2 C  s               235     -2.726292   6 C  s         
    97      2.674957   3 C  s               189     -2.670149   5 C  s         
   303      1.996176   8 H  s               349     -1.997941  10 H  s         
    15      1.866535   1 C  px              153      1.807137   4 C  px        
   280      1.540039   7 H  s               372     -1.538549  11 H  s         
 
 Vector   26  Occ=0.000000D+00  E= 8.724949D-03
              MO Center=  6.2D-03, -7.3D-02,  5.5D-05, r^2= 2.7D+01
   Bfn.  Coefficient  Atom+Function         Bfn.  Coefficient  Atom+Function  
  ----- ------------  ---------------      ----- ------------  ---------------
   143      6.244206   4 C  s                51     -4.006130   2 C  s         
   235     -4.011518   6 C  s               326      2.932678   9 H  s         
     5      2.588527   1 C  s               280     -2.388949   7 H  s         
   372     -2.386925  11 H  s               154      1.947021   4 C  py        
   246      1.930184   6 C  py               62      1.833453   2 C  py        
 
 Vector   27  Occ=0.000000D+00  E= 2.670401D-02
              MO Center= -1.3D-02,  2.4D-01, -2.4D-05, r^2= 3.1D+01
   Bfn.  Coefficient  Atom+Function         Bfn.  Coefficient  Atom+Function  
  ----- ------------  ---------------      ----- ------------  ---------------
   280      3.935657   7 H  s               372     -3.928332  11 H  s         
    51      3.697815   2 C  s               235     -3.617551   6 C  s         
   303     -3.595219   8 H  s               349      3.607814  10 H  s         
    61      2.222204   2 C  px               97     -2.193562   3 C  s         
   189      2.187509   5 C  s               199     -2.054302   5 C  px        
 
 Vector   28  Occ=0.000000D+00  E= 3.221421D-02
              MO Center=  3.7D-02, -6.2D-01, -1.2D-04, r^2= 2.9D+01
   Bfn.  Coefficient  Atom+Function         Bfn.  Coefficient  Atom+Function  
  ----- ------------  ---------------      ----- ------------  ---------------
     5      6.395423   1 C  s               326     -4.997001   9 H  s         
   303      3.733546   8 H  s               349      3.718992  10 H  s         
    97     -2.190629   3 C  s               154     -2.175404   4 C  py        
   189     -2.166715   5 C  s               199     -1.647038   5 C  px        
   245      1.628136   6 C  px               61     -1.586142   2 C  px        
 
 Vector   29  Occ=0.000000D+00  E= 4.329044D-02
              MO Center=  1.6D-02, -2.2D-01,  9.9D-06, r^2= 1.3D+01
   Bfn.  Coefficient  Atom+Function         Bfn.  Coefficient  Atom+Function  
  ----- ------------  ---------------      ----- ------------  ---------------
   155      0.598984   4 C  pz               63      0.575218   2 C  pz        
   247      0.576815   6 C  pz               17     -0.260351   1 C  pz        
    60     -0.155106   2 C  pz              244     -0.155065   6 C  pz        
   289     -0.123491   7 H  pz              381     -0.123590  11 H  pz        
   259      0.121378   6 C  d -1             77      0.110530   2 C  d  1      
 
 Vector   30  Occ=0.000000D+00  E= 5.495260D-02
              MO Center=  7.3D-03, -1.5D-01, -4.1D-05, r^2= 1.5D+01
   Bfn.  Coefficient  Atom+Function         Bfn.  Coefficient  Atom+Function  
  ----- ------------  ---------------      ----- ------------  ---------------
     5     10.700715   1 C  s               143      5.280655   4 C  s         
    51     -4.481252   2 C  s               235     -4.488943   6 C  s         
   303     -2.802495   8 H  s               349     -2.794823  10 H  s         
   326      2.057388   9 H  s               199      1.998561   5 C  px        
    97     -1.959078   3 C  s               189     -1.938949   5 C  s         
 
 Vector   31  Occ=0.000000D+00  E= 6.334914D-02
              MO Center= -3.8D-02,  6.5D-01, -1.0D-04, r^2= 2.8D+01
   Bfn.  Coefficient  Atom+Function         Bfn.  Coefficient  Atom+Function  
  ----- ------------  ---------------      ----- ------------  ---------------
     5     24.384761   1 C  s               235     -9.887067   6 C  s         
    51     -9.829764   2 C  s               143      7.629557   4 C  s         
    97     -6.526455   3 C  s               189     -6.496619   5 C  s         
   326      5.866859   9 H  s               154      4.771924   4 C  py        
   303     -4.686266   8 H  s               349     -4.679481  10 H  s         
 
 Vector   32  Occ=0.000000D+00  E= 6.574348D-02
              MO Center=  3.2D-03, -2.3D-02,  5.4D-04, r^2= 1.8D+01
   Bfn.  Coefficient  Atom+Function         Bfn.  Coefficient  Atom+Function  
  ----- ------------  ---------------      ----- ------------  ---------------
   109      0.978910   3 C  pz              201     -0.971426   5 C  pz        
   247     -0.776566   6 C  pz               63      0.766679   2 C  pz        
   169     -0.676999   4 C  d  1             31     -0.583164   1 C  d  1      
   106      0.492751   3 C  pz              198     -0.491299   5 C  pz        
    60      0.488758   2 C  pz              244     -0.488542   6 C  pz        
 
 Vector   33  Occ=0.000000D+00  E= 6.825412D-02
              MO Center= -1.4D-02,  1.9D-01, -2.7D-04, r^2= 1.8D+01
   Bfn.  Coefficient  Atom+Function         Bfn.  Coefficient  Atom+Function  
  ----- ------------  ---------------      ----- ------------  ---------------
    63      1.028938   2 C  pz              247      1.021145   6 C  pz        
   201     -0.815399   5 C  pz              109     -0.804097   3 C  pz        
   155     -0.753944   4 C  pz               14      0.629097   1 C  pz        
   152     -0.618200   4 C  pz               17      0.456567   1 C  pz        
   213     -0.450742   5 C  d -1            261     -0.406768   6 C  d  1      
 
 Vector   34  Occ=0.000000D+00  E= 7.645257D-02
              MO Center= -1.2D-03, -1.6D-01, -1.3D-04, r^2= 3.5D+01
   Bfn.  Coefficient  Atom+Function         Bfn.  Coefficient  Atom+Function  
  ----- ------------  ---------------      ----- ------------  ---------------
    51     13.857449   2 C  s               235    -13.872925   6 C  s         
    97     12.411079   3 C  s               189    -12.409527   5 C  s         
    15      7.678464   1 C  px              153      7.708278   4 C  px        
   107      4.757218   3 C  px              303      4.684982   8 H  s         
   349     -4.697350  10 H  s               199      4.468920   5 C  px        
 
 Vector   35  Occ=0.000000D+00  E= 7.790933D-02
              MO Center=  2.1D-01, -3.3D+00,  1.3D-04, r^2= 2.1D+01
   Bfn.  Coefficient  Atom+Function         Bfn.  Coefficient  Atom+Function  
  ----- ------------  ---------------      ----- ------------  ---------------
   143     18.268681   4 C  s                51    -13.484587   2 C  s         
   235    -13.398518   6 C  s               326      7.027998   9 H  s         
    62      5.680488   2 C  py              246      5.647518   6 C  py        
   200      5.371432   5 C  py              154      5.273936   4 C  py        
   108      5.058540   3 C  py              279      4.190814   7 H  s         
 
 Vector   36  Occ=0.000000D+00  E= 8.154944D-02
              MO Center= -8.6D-02,  1.4D+00,  6.9D-05, r^2= 2.8D+01
   Bfn.  Coefficient  Atom+Function         Bfn.  Coefficient  Atom+Function  
  ----- ------------  ---------------      ----- ------------  ---------------
   143     20.703933   4 C  s                51     -8.956813   2 C  s         
   235     -8.924882   6 C  s               246      5.229702   6 C  py        
    62      5.195424   2 C  py              325     -4.965049   9 H  s         
   280     -4.580235   7 H  s               372     -4.548929  11 H  s         
   326      4.498456   9 H  s               200      4.451899   5 C  py        
 
 Vector   37  Occ=0.000000D+00  E= 8.316774D-02
              MO Center=  4.4D-02, -7.3D-01, -1.0D-05, r^2= 2.2D+01
   Bfn.  Coefficient  Atom+Function         Bfn.  Coefficient  Atom+Function  
  ----- ------------  ---------------      ----- ------------  ---------------
   189     -4.966009   5 C  s                97      4.924451   3 C  s         
   235      3.165307   6 C  s                51     -3.103253   2 C  s         
   303      2.817725   8 H  s               108      2.782649   3 C  py        
   349     -2.794215  10 H  s               200     -2.698572   5 C  py        
   153      2.605219   4 C  px              188     -2.098569   5 C  s         
 
 Vector   38  Occ=0.000000D+00  E= 9.540142D-02
              MO Center= -3.6D-02,  8.8D-01,  1.5D-05, r^2= 3.1D+01
   Bfn.  Coefficient  Atom+Function         Bfn.  Coefficient  Atom+Function  
  ----- ------------  ---------------      ----- ------------  ---------------
    51     17.831917   2 C  s               235    -17.524870   6 C  s         
   280      7.212420   7 H  s               372     -7.221306  11 H  s         
    97     -6.926050   3 C  s               189      6.889728   5 C  s         
   108     -6.513654   3 C  py              349      6.218436  10 H  s         
   303     -6.183456   8 H  s               200      5.854521   5 C  py        
 
 Vector   39  Occ=0.000000D+00  E= 1.017965D-01
              MO Center=  6.3D-03,  1.1D-01, -3.3D-04, r^2= 1.9D+01
   Bfn.  Coefficient  Atom+Function         Bfn.  Coefficient  Atom+Function  
  ----- ------------  ---------------      ----- ------------  ---------------
   235    -13.848944   6 C  s                51     13.628337   2 C  s         
    97     10.939328   3 C  s               189    -10.824931   5 C  s         
    15     10.002719   1 C  px              153      9.716936   4 C  px        
   200      6.068399   5 C  py              246     -6.070047   6 C  py        
    62      5.944517   2 C  py              108     -5.961810   3 C  py        
 
 Vector   40  Occ=0.000000D+00  E= 1.064730D-01
              MO Center= -3.2D-02,  1.3D-01, -5.6D-04, r^2= 2.1D+01
   Bfn.  Coefficient  Atom+Function         Bfn.  Coefficient  Atom+Function  
  ----- ------------  ---------------      ----- ------------  ---------------
   143     18.275520   4 C  s                51    -10.063147   2 C  s         
   235     -9.811369   6 C  s                 5     -9.460945   1 C  s         
   107     -8.776375   3 C  px              199      7.963490   5 C  px        
   245     -6.999651   6 C  px              200      6.664134   5 C  py        
    61      6.536976   2 C  px              108      5.735753   3 C  py        
 
 Vector   41  Occ=0.000000D+00  E= 1.081988D-01
              MO Center= -1.2D-03,  1.6D-01, -9.0D-05, r^2= 2.2D+01
   Bfn.  Coefficient  Atom+Function         Bfn.  Coefficient  Atom+Function  
  ----- ------------  ---------------      ----- ------------  ---------------
    63      3.392764   2 C  pz              201      3.406020   5 C  pz        
   247     -3.389156   6 C  pz              109     -3.321078   3 C  pz        
    60      0.696822   2 C  pz              244     -0.696058   6 C  pz        
   198      0.645464   5 C  pz              106     -0.628747   3 C  pz        
    77     -0.382547   2 C  d  1            215      0.365622   5 C  d  1      
 
 Vector   42  Occ=0.000000D+00  E= 1.089646D-01
              MO Center=  2.1D-02, -4.7D-01,  2.2D-03, r^2= 2.1D+01
   Bfn.  Coefficient  Atom+Function         Bfn.  Coefficient  Atom+Function  
  ----- ------------  ---------------      ----- ------------  ---------------
   155      5.322471   4 C  pz              109     -3.484810   3 C  pz        
   201     -3.405159   5 C  pz               17      2.508835   1 C  pz        
   152      0.982924   4 C  pz              106     -0.611567   3 C  pz        
   198     -0.595853   5 C  pz              167      0.569204   4 C  d -1      
   247     -0.509885   6 C  pz               14      0.504952   1 C  pz        
 
 Vector   43  Occ=0.000000D+00  E= 1.094929D-01
              MO Center=  2.8D-02, -4.5D-01, -1.2D-03, r^2= 2.7D+01
   Bfn.  Coefficient  Atom+Function         Bfn.  Coefficient  Atom+Function  
  ----- ------------  ---------------      ----- ------------  ---------------
   326      7.669885   9 H  s               154      7.052131   4 C  py        
   303     -6.487583   8 H  s               349     -6.468325  10 H  s         
   143     -5.601093   4 C  s               108     -4.420657   3 C  py        
    62     -4.186471   2 C  py              200     -4.192423   5 C  py        
   246     -4.100591   6 C  py                4      3.926361   1 C  s         
 
 Vector   44  Occ=0.000000D+00  E= 1.177936D-01
              MO Center= -4.2D-02,  6.5D-01, -4.2D-04, r^2= 1.4D+01
   Bfn.  Coefficient  Atom+Function         Bfn.  Coefficient  Atom+Function  
  ----- ------------  ---------------      ----- ------------  ---------------
    17      6.876756   1 C  pz               63     -6.018291   2 C  pz        
   247     -6.021734   6 C  pz              109      5.048172   3 C  pz        
   201      5.050110   5 C  pz              155     -4.819381   4 C  pz        
    14      1.235250   1 C  pz               60     -1.020095   2 C  pz        
   244     -1.019647   6 C  pz              106      0.891554   3 C  pz        
 
 Vector   45  Occ=0.000000D+00  E= 1.264038D-01
              MO Center= -1.9D-02,  2.9D-01, -1.9D-05, r^2= 2.5D+01
   Bfn.  Coefficient  Atom+Function         Bfn.  Coefficient  Atom+Function  
  ----- ------------  ---------------      ----- ------------  ---------------
    51      7.626631   2 C  s               235     -7.553552   6 C  s         
   107      7.204793   3 C  px              199      7.122239   5 C  px        
   245     -7.052296   6 C  px               61     -6.906961   2 C  px        
    15      6.443115   1 C  px               97     -6.190982   3 C  s         
   189      6.194157   5 C  s               153     -5.813515   4 C  px        
 
 Vector   46  Occ=0.000000D+00  E= 1.274465D-01
              MO Center= -1.0D-02,  1.9D-01,  1.4D-04, r^2= 2.6D+01
   Bfn.  Coefficient  Atom+Function         Bfn.  Coefficient  Atom+Function  
  ----- ------------  ---------------      ----- ------------  ---------------
   154     -8.029400   4 C  py               16      7.423383   1 C  py        
   108      6.891263   3 C  py               62     -6.581255   2 C  py        
   200      6.565986   5 C  py              246     -6.372348   6 C  py        
   326     -4.049889   9 H  s                 5      3.558910   1 C  s         
   303      3.157112   8 H  s               349      3.171674  10 H  s         
 
 Vector   47  Occ=0.000000D+00  E= 1.609407D-01
              MO Center= -7.4D-03,  1.4D-01,  9.5D-05, r^2= 1.7D+01
   Bfn.  Coefficient  Atom+Function         Bfn.  Coefficient  Atom+Function  
  ----- ------------  ---------------      ----- ------------  ---------------
    17      8.197035   1 C  pz               63     -8.001652   2 C  pz        
   247     -8.013154   6 C  pz              155     -7.858132   4 C  pz        
   109      7.768608   3 C  pz              201      7.777337   5 C  pz        
    60     -1.192107   2 C  pz              106      1.191774   3 C  pz        
   198      1.193566   5 C  pz              244     -1.193545   6 C  pz        
 
 Vector   48  Occ=0.000000D+00  E= 1.660228D-01
              MO Center= -9.2D-02,  1.4D+00,  3.2D-04, r^2= 2.2D+01
   Bfn.  Coefficient  Atom+Function         Bfn.  Coefficient  Atom+Function  
  ----- ------------  ---------------      ----- ------------  ---------------
     5     59.203370   1 C  s               235    -26.146782   6 C  s         
   143     25.974690   4 C  s                51    -25.824359   2 C  s         
    97    -14.416780   3 C  s               189    -14.405765   5 C  s         
   154      7.428044   4 C  py              245      6.820147   6 C  px        
    61     -6.398409   2 C  px              326      6.155555   9 H  s         
 
 Vector   49  Occ=0.000000D+00  E= 1.754180D-01
              MO Center=  2.5D-02, -3.9D-01, -1.7D-04, r^2= 1.1D+01
   Bfn.  Coefficient  Atom+Function         Bfn.  Coefficient  Atom+Function  
  ----- ------------  ---------------      ----- ------------  ---------------
   335      1.104731   9 H  pz              312      1.079396   8 H  pz        
   358      1.079391  10 H  pz              289      0.972266   7 H  pz        
   381      0.973156  11 H  pz               17      0.953545   1 C  pz        
    63     -0.877724   2 C  pz              247     -0.880480   6 C  pz        
   198     -0.846285   5 C  pz              106     -0.841568   3 C  pz        
 
 Vector   50  Occ=0.000000D+00  E= 1.864101D-01
              MO Center=  4.0D-02, -5.5D-01,  9.6D-05, r^2= 1.5D+01
   Bfn.  Coefficient  Atom+Function         Bfn.  Coefficient  Atom+Function  
  ----- ------------  ---------------      ----- ------------  ---------------
     5     15.536185   1 C  s                97     -7.282198   3 C  s         
   189     -7.271854   5 C  s               235     -4.644567   6 C  s         
   325      4.419053   9 H  s                51     -4.357575   2 C  s         
    62     -4.025645   2 C  py              154      3.992491   4 C  py        
   246     -3.832943   6 C  py              302      3.253061   8 H  s         
 
 Vector   51  Occ=0.000000D+00  E= 1.980346D-01
              MO Center=  4.5D-02,  4.7D-01,  3.6D-04, r^2= 2.3D+01
   Bfn.  Coefficient  Atom+Function         Bfn.  Coefficient  Atom+Function  
  ----- ------------  ---------------      ----- ------------  ---------------
   235    -46.449455   6 C  s                51     42.569944   2 C  s         
    97     25.751111   3 C  s               189    -24.619817   5 C  s         
    15     18.497686   1 C  px              153     17.007901   4 C  px        
   302    -14.193503   8 H  s               348     13.785658  10 H  s         
   200      9.991030   5 C  py              371      8.710084  11 H  s         
 
 Vector   52  Occ=0.000000D+00  E= 1.984358D-01
              MO Center= -4.5D-02, -7.3D-01, -5.1D-04, r^2= 2.3D+01
   Bfn.  Coefficient  Atom+Function         Bfn.  Coefficient  Atom+Function  
  ----- ------------  ---------------      ----- ------------  ---------------
   143     61.220405   4 C  s                51    -37.284001   2 C  s         
   235    -31.676741   6 C  s               325    -16.837144   9 H  s         
    62     14.644915   2 C  py              246     14.424548   6 C  py        
   108     13.114047   3 C  py              200     13.135782   5 C  py        
     5    -11.558736   1 C  s               279     11.569071   7 H  s         
 
 Vector   53  Occ=0.000000D+00  E= 2.154164D-01
              MO Center=  9.5D-02, -1.4D+00, -3.9D-05, r^2= 1.5D+01
   Bfn.  Coefficient  Atom+Function         Bfn.  Coefficient  Atom+Function  
  ----- ------------  ---------------      ----- ------------  ---------------
    97     13.878532   3 C  s               189    -13.836321   5 C  s         
   188     -6.564485   5 C  s                96      6.527712   3 C  s         
   153      6.339827   4 C  px              371      5.170364  11 H  s         
   279     -5.101310   7 H  s               349     -4.745570  10 H  s         
   303      4.713158   8 H  s               246     -4.547430   6 C  py        
 
 Vector   54  Occ=0.000000D+00  E= 2.182222D-01
              MO Center=  4.3D-02, -2.7D-01, -2.2D-04, r^2= 1.5D+01
   Bfn.  Coefficient  Atom+Function         Bfn.  Coefficient  Atom+Function  
  ----- ------------  ---------------      ----- ------------  ---------------
   143     25.406013   4 C  s                51    -21.492934   2 C  s         
     5     15.754175   1 C  s               235    -13.574749   6 C  s         
    16     -6.438722   1 C  py              325     -5.956532   9 H  s         
   246      5.264448   6 C  py              108      4.415990   3 C  py        
    62      4.188248   2 C  py              371      3.740032  11 H  s         
 
 Vector   55  Occ=0.000000D+00  E= 2.191258D-01
              MO Center= -3.6D-02, -9.8D-02,  1.1D-03, r^2= 1.5D+01
   Bfn.  Coefficient  Atom+Function         Bfn.  Coefficient  Atom+Function  
  ----- ------------  ---------------      ----- ------------  ---------------
   235     22.299005   6 C  s                51    -16.514996   2 C  s         
   200     -8.499267   5 C  py              108      7.857072   3 C  py        
    15     -7.461725   1 C  px              348     -6.825910  10 H  s         
   302      6.783454   8 H  s               153     -6.210311   4 C  px        
    62     -4.600466   2 C  py              143     -4.205880   4 C  s         
 
 Vector   56  Occ=0.000000D+00  E= 2.301152D-01
              MO Center=  7.4D-02,  3.0D-01,  1.9D-03, r^2= 1.8D+01
   Bfn.  Coefficient  Atom+Function         Bfn.  Coefficient  Atom+Function  
  ----- ------------  ---------------      ----- ------------  ---------------
   199      5.161254   5 C  px              107      4.387113   3 C  px        
   153     -3.566039   4 C  px              234      3.355539   6 C  s         
   349     -3.316398  10 H  s                50     -3.171248   2 C  s         
   303      3.007841   8 H  s                15     -2.629121   1 C  px        
   108      2.529084   3 C  py              150      1.952842   4 C  px        
 
 Vector   57  Occ=0.000000D+00  E= 2.311926D-01
              MO Center=  8.9D-04,  2.1D-03, -3.7D-03, r^2= 1.6D+01
   Bfn.  Coefficient  Atom+Function         Bfn.  Coefficient  Atom+Function  
  ----- ------------  ---------------      ----- ------------  ---------------
   106      2.140127   3 C  pz              198     -2.144028   5 C  pz        
    60      2.047015   2 C  pz              244     -2.048447   6 C  pz        
   312     -1.818824   8 H  pz              358      1.817389  10 H  pz        
   289     -1.717345   7 H  pz              381      1.723773  11 H  pz        
   169     -1.379508   4 C  d  1             31     -1.247494   1 C  d  1      
 
 Vector   58  Occ=0.000000D+00  E= 2.353883D-01
              MO Center= -2.0D-01,  1.9D-01,  2.2D-04, r^2= 1.6D+01
   Bfn.  Coefficient  Atom+Function         Bfn.  Coefficient  Atom+Function  
  ----- ------------  ---------------      ----- ------------  ---------------
    51     15.530529   2 C  s               143    -14.655541   4 C  s         
   107      8.077605   3 C  px              199     -7.737299   5 C  px        
    97     -6.227750   3 C  s                61     -5.250515   2 C  px        
   245      5.172696   6 C  px              235      5.035100   6 C  s         
   349      4.875907  10 H  s               189      4.779912   5 C  s         
 
 Vector   59  Occ=0.000000D+00  E= 2.365349D-01
              MO Center=  9.5D-02,  9.0D-02,  1.3D-03, r^2= 1.7D+01
   Bfn.  Coefficient  Atom+Function         Bfn.  Coefficient  Atom+Function  
  ----- ------------  ---------------      ----- ------------  ---------------
   235     33.018917   6 C  s               189    -32.840165   5 C  s         
    97     32.572866   3 C  s                51    -29.151335   2 C  s         
    96     14.480952   3 C  s               188    -13.920616   5 C  s         
   279    -11.025617   7 H  s               302     10.558580   8 H  s         
   348    -10.478508  10 H  s               371     10.265355  11 H  s         
 
 Vector   60  Occ=0.000000D+00  E= 2.434355D-01
              MO Center=  1.0D-03, -4.4D-02, -5.3D-04, r^2= 1.5D+01
   Bfn.  Coefficient  Atom+Function         Bfn.  Coefficient  Atom+Function  
  ----- ------------  ---------------      ----- ------------  ---------------
   152      3.414934   4 C  pz               14     -3.023779   1 C  pz        
   289      2.175524   7 H  pz              381      2.165897  11 H  pz        
   335     -2.124849   9 H  pz               77     -1.991651   2 C  d  1      
   261      1.994867   6 C  d  1             63     -1.599393   2 C  pz        
   247     -1.598667   6 C  pz              155      1.372285   4 C  pz        
 
 Vector   61  Occ=0.000000D+00  E= 2.594878D-01
              MO Center=  5.0D-02, -6.0D-01,  6.4D-05, r^2= 1.7D+01
   Bfn.  Coefficient  Atom+Function         Bfn.  Coefficient  Atom+Function  
  ----- ------------  ---------------      ----- ------------  ---------------
     5      8.750010   1 C  s               108     -6.594989   3 C  py        
   200     -6.116238   5 C  py              349     -5.218560  10 H  s         
   303     -5.156069   8 H  s               199      5.127211   5 C  px        
   197     -4.849893   5 C  py              143     -4.775735   4 C  s         
   105     -4.716771   3 C  py              154      4.385040   4 C  py        
 
 Vector   62  Occ=0.000000D+00  E= 2.620187D-01
              MO Center=  5.8D-02, -1.1D+00, -5.3D-05, r^2= 1.7D+01
   Bfn.  Coefficient  Atom+Function         Bfn.  Coefficient  Atom+Function  
  ----- ------------  ---------------      ----- ------------  ---------------
     5     18.951431   1 C  s               154     15.375480   4 C  py        
   143     15.162465   4 C  s               235    -14.913766   6 C  s         
    51    -14.210358   2 C  s               326      9.180732   9 H  s         
     4      6.017655   1 C  s               108     -4.866814   3 C  py        
    97     -4.830403   3 C  s               189     -4.482133   5 C  s         
 
 Vector   63  Occ=0.000000D+00  E= 2.676622D-01
              MO Center= -1.4D-02,  4.3D-01,  6.3D-05, r^2= 2.0D+01
   Bfn.  Coefficient  Atom+Function         Bfn.  Coefficient  Atom+Function  
  ----- ------------  ---------------      ----- ------------  ---------------
    51     20.420664   2 C  s               235    -19.976083   6 C  s         
   189     11.971962   5 C  s                97    -11.859332   3 C  s         
    61     11.044106   2 C  px              245     10.234023   6 C  px        
   188      8.896306   5 C  s               371     -8.808066  11 H  s         
   279      8.721459   7 H  s                96     -8.616217   3 C  s         
 
 Vector   64  Occ=0.000000D+00  E= 2.747857D-01
              MO Center=  1.6D-03,  2.4D-02,  6.7D-05, r^2= 1.4D+01
   Bfn.  Coefficient  Atom+Function         Bfn.  Coefficient  Atom+Function  
  ----- ------------  ---------------      ----- ------------  ---------------
   143      8.950186   4 C  s                 5      8.698993   1 C  s         
   154      5.762153   4 C  py              371     -5.702396  11 H  s         
   279     -5.605375   7 H  s               348     -4.681343  10 H  s         
   302     -4.616905   8 H  s               325     -4.359699   9 H  s         
    16     -4.028684   1 C  py              246      3.262134   6 C  py        
 
 Vector   65  Occ=0.000000D+00  E= 2.829738D-01
              MO Center= -5.4D-03,  1.8D-01, -2.2D-05, r^2= 1.6D+01
   Bfn.  Coefficient  Atom+Function         Bfn.  Coefficient  Atom+Function  
  ----- ------------  ---------------      ----- ------------  ---------------
    12      9.525082   1 C  px               97      8.881345   3 C  s         
   189     -8.916853   5 C  s               302      8.168476   8 H  s         
    51     -8.033529   2 C  s               235      8.001511   6 C  s         
   348     -8.021308  10 H  s               199      7.613647   5 C  px        
   107      7.177184   3 C  px              150      6.188549   4 C  px        
 
 Vector   66  Occ=0.000000D+00  E= 2.954289D-01
              MO Center= -5.1D-03,  5.0D-02, -2.0D-05, r^2= 1.6D+01
   Bfn.  Coefficient  Atom+Function         Bfn.  Coefficient  Atom+Function  
  ----- ------------  ---------------      ----- ------------  ---------------
    63      3.207122   2 C  pz              109     -3.188121   3 C  pz        
   201      3.189228   5 C  pz              247     -3.195187   6 C  pz        
   289     -2.278867   7 H  pz              381      2.275737  11 H  pz        
    60      2.254570   2 C  pz              244     -2.258905   6 C  pz        
   312      2.265676   8 H  pz              358     -2.261053  10 H  pz        
 
 Vector   67  Occ=0.000000D+00  E= 2.962827D-01
              MO Center= -7.4D-02,  9.6D-01,  4.1D-04, r^2= 1.4D+01
   Bfn.  Coefficient  Atom+Function         Bfn.  Coefficient  Atom+Function  
  ----- ------------  ---------------      ----- ------------  ---------------
     4     10.428960   1 C  s                59     -5.743845   2 C  py        
   243     -5.630020   6 C  py                5      5.525998   1 C  s         
   105     -5.536427   3 C  py              197     -5.143058   5 C  py        
    16      4.270726   1 C  py              279     -4.181888   7 H  s         
   371     -4.191130  11 H  s                13      3.911429   1 C  py        
 
 Vector   68  Occ=0.000000D+00  E= 3.080540D-01
              MO Center=  2.9D-02, -2.7D-01, -4.5D-04, r^2= 1.5D+01
   Bfn.  Coefficient  Atom+Function         Bfn.  Coefficient  Atom+Function  
  ----- ------------  ---------------      ----- ------------  ---------------
   155      5.181788   4 C  pz               14      4.365693   1 C  pz        
   109     -3.746344   3 C  pz              201     -3.741187   5 C  pz        
   335     -2.709305   9 H  pz               60     -2.049821   2 C  pz        
   244     -2.049962   6 C  pz              152      1.851367   4 C  pz        
    17      1.837140   1 C  pz               29     -1.720111   1 C  d -1      
 
 Vector   69  Occ=0.000000D+00  E= 3.150319D-01
              MO Center= -6.2D-03, -7.4D-02,  1.9D-05, r^2= 9.1D+00
   Bfn.  Coefficient  Atom+Function         Bfn.  Coefficient  Atom+Function  
  ----- ------------  ---------------      ----- ------------  ---------------
   261      1.275888   6 C  d  1             77      1.105573   2 C  d  1      
   169     -1.080232   4 C  d  1             75     -1.069629   2 C  d -1      
   259      0.822844   6 C  d -1            381      0.774064  11 H  pz        
   289     -0.670733   7 H  pz               31      0.634924   1 C  d  1      
   244      0.357039   6 C  pz               60     -0.315622   2 C  pz        
 
 Vector   70  Occ=0.000000D+00  E= 3.284569D-01
              MO Center=  5.4D-02, -6.2D-01,  8.0D-05, r^2= 1.5D+01
   Bfn.  Coefficient  Atom+Function         Bfn.  Coefficient  Atom+Function  
  ----- ------------  ---------------      ----- ------------  ---------------
   142     12.141180   4 C  s               188      8.808777   5 C  s         
    96      8.613415   3 C  s               151     -6.832728   4 C  py        
   325     -5.846880   9 H  s                 4     -5.232064   1 C  s         
   334     -5.004841   9 H  py                5      4.897604   1 C  s         
   348     -4.561853  10 H  s               243      4.197457   6 C  py        
 
 Vector   71  Occ=0.000000D+00  E= 3.347378D-01
              MO Center= -8.6D-03,  2.5D-02,  1.8D-04, r^2= 7.7D+00
   Bfn.  Coefficient  Atom+Function         Bfn.  Coefficient  Atom+Function  
  ----- ------------  ---------------      ----- ------------  ---------------
   289      2.058121   7 H  pz              381      2.006032  11 H  pz        
   335      1.840943   9 H  pz               14     -1.758530   1 C  pz        
   155     -1.720259   4 C  pz               63     -1.562270   2 C  pz        
   247     -1.568313   6 C  pz               77     -1.541399   2 C  d  1      
   261      1.369015   6 C  d  1            198     -1.287186   5 C  pz        
 
 Vector   72  Occ=0.000000D+00  E= 3.433129D-01
              MO Center=  2.7D-02, -3.9D-01, -4.5D-03, r^2= 1.2D+01
   Bfn.  Coefficient  Atom+Function         Bfn.  Coefficient  Atom+Function  
  ----- ------------  ---------------      ----- ------------  ---------------
   169      3.296233   4 C  d  1             31      2.702968   1 C  d  1      
   358      2.488392  10 H  pz              312     -2.465551   8 H  pz        
   123      2.185294   3 C  d  1            215      2.140340   5 C  d  1      
   106     -1.810556   3 C  pz              198      1.784842   5 C  pz        
   289     -1.432764   7 H  pz              381      1.431761  11 H  pz        
 
 Vector   73  Occ=0.000000D+00  E= 3.449190D-01
              MO Center= -7.0D-02,  5.6D-01, -2.1D-03, r^2= 1.2D+01
   Bfn.  Coefficient  Atom+Function         Bfn.  Coefficient  Atom+Function  
  ----- ------------  ---------------      ----- ------------  ---------------
   143     23.687727   4 C  s               325    -13.017160   9 H  s         
   235    -12.068687   6 C  s               279     11.969705   7 H  s         
   371     11.863958  11 H  s                51    -11.427765   2 C  s         
     5     -7.717205   1 C  s               105     -6.872813   3 C  py        
   197     -6.836708   5 C  py              243     -5.891666   6 C  py        
 
 Vector   74  Occ=0.000000D+00  E= 3.478137D-01
              MO Center=  1.9D-02, -1.5D-01,  4.1D-03, r^2= 1.2D+01
   Bfn.  Coefficient  Atom+Function         Bfn.  Coefficient  Atom+Function  
  ----- ------------  ---------------      ----- ------------  ---------------
    51     21.665848   2 C  s               235    -20.662765   6 C  s         
   302    -12.054634   8 H  s               348     11.903537  10 H  s         
    97     10.987571   3 C  s               189    -10.901960   5 C  s         
   371      9.865191  11 H  s               279     -9.649686   7 H  s         
    12     -8.074713   1 C  px              150     -7.047988   4 C  px        
 
 Vector   75  Occ=0.000000D+00  E= 3.481507D-01
              MO Center=  4.4D-02, -5.3D-01,  3.1D-03, r^2= 1.3D+01
   Bfn.  Coefficient  Atom+Function         Bfn.  Coefficient  Atom+Function  
  ----- ------------  ---------------      ----- ------------  ---------------
   155     -3.939069   4 C  pz               17      3.747284   1 C  pz        
   109      3.534267   3 C  pz              201      3.526047   5 C  pz        
    63     -3.423465   2 C  pz              247     -3.412923   6 C  pz        
   152     -3.005560   4 C  pz              213     -2.351313   5 C  d -1      
   381      2.297067  11 H  pz              259     -2.256979   6 C  d -1      
 
 Vector   76  Occ=0.000000D+00  E= 3.527338D-01
              MO Center=  4.3D-02, -5.2D-01, -1.7D-04, r^2= 1.4D+01
   Bfn.  Coefficient  Atom+Function         Bfn.  Coefficient  Atom+Function  
  ----- ------------  ---------------      ----- ------------  ---------------
    17      6.410004   1 C  pz              247     -5.890783   6 C  pz        
    63     -5.860346   2 C  pz              201      5.156115   5 C  pz        
   109      5.130387   3 C  pz              155     -4.871667   4 C  pz        
   335      3.946330   9 H  pz               14      3.807170   1 C  pz        
   167      3.064899   4 C  d -1            244     -2.731679   6 C  pz        
 
 Vector   77  Occ=0.000000D+00  E= 3.546335D-01
              MO Center= -3.2D-02,  3.2D-01, -7.0D-04, r^2= 1.5D+01
   Bfn.  Coefficient  Atom+Function         Bfn.  Coefficient  Atom+Function  
  ----- ------------  ---------------      ----- ------------  ---------------
     5     31.339667   1 C  s               235    -16.442876   6 C  s         
   143     15.920339   4 C  s                51    -15.063616   2 C  s         
   151    -11.088187   4 C  py              196     -7.654015   5 C  px        
   234      7.414334   6 C  s                50      7.345913   2 C  s         
    13      7.264696   1 C  py              279     -7.138904   7 H  s         
 
 Vector   78  Occ=0.000000D+00  E= 3.598971D-01
              MO Center= -6.7D-02,  7.5D-01,  2.4D-04, r^2= 1.3D+01
   Bfn.  Coefficient  Atom+Function         Bfn.  Coefficient  Atom+Function  
  ----- ------------  ---------------      ----- ------------  ---------------
   289      3.418299   7 H  pz              381     -3.391624  11 H  pz        
    60      3.198393   2 C  pz               77     -3.107988   2 C  d  1      
   121     -3.107516   3 C  d -1            244     -3.112116   6 C  pz        
   259      3.012290   6 C  d -1            358      2.783585  10 H  pz        
   198      2.754149   5 C  pz              213      2.761016   5 C  d -1      
 
 Vector   79  Occ=0.000000D+00  E= 3.685317D-01
              MO Center=  1.3D-02, -5.8D-01, -1.6D-04, r^2= 1.3D+01
   Bfn.  Coefficient  Atom+Function         Bfn.  Coefficient  Atom+Function  
  ----- ------------  ---------------      ----- ------------  ---------------
    96     10.838420   3 C  s               188     10.618022   5 C  s         
   104     -8.554373   3 C  px              196      8.447781   5 C  px        
   142     -7.528819   4 C  s                 5      7.179561   1 C  s         
   212      5.391484   5 C  d -2            258      5.294484   6 C  d -2      
   120     -5.226772   3 C  d -2            242     -5.150401   6 C  px        
 
 Vector   80  Occ=0.000000D+00  E= 3.720808D-01
              MO Center=  4.8D-02, -3.1D-01, -2.1D-04, r^2= 1.3D+01
   Bfn.  Coefficient  Atom+Function         Bfn.  Coefficient  Atom+Function  
  ----- ------------  ---------------      ----- ------------  ---------------
    97      9.893786   3 C  s               189     -9.782682   5 C  s         
    50      9.086074   2 C  s               234     -8.948610   6 C  s         
   371      5.664303  11 H  s               279     -5.290600   7 H  s         
   357      5.273412  10 H  py               51     -5.159583   2 C  s         
   311     -5.096173   8 H  py              212     -4.891105   5 C  d -2      
 
 Vector   81  Occ=0.000000D+00  E= 3.819129D-01
              MO Center=  2.5D-02, -5.8D-01, -3.3D-06, r^2= 1.6D+01
   Bfn.  Coefficient  Atom+Function         Bfn.  Coefficient  Atom+Function  
  ----- ------------  ---------------      ----- ------------  ---------------
   166      9.075011   4 C  d -2            333      7.115117   9 H  px        
   150     -6.668997   4 C  px              216     -6.575102   5 C  d  2      
   124      6.084581   3 C  d  2            371     -5.989589  11 H  s         
   279      5.747990   7 H  s               310      5.100718   8 H  px        
   356      5.007393  10 H  px              188      4.845835   5 C  s         
 
 Vector   82  Occ=0.000000D+00  E= 3.932532D-01
              MO Center= -2.0D-02,  4.6D-01,  1.9D-04, r^2= 1.5D+01
   Bfn.  Coefficient  Atom+Function         Bfn.  Coefficient  Atom+Function  
  ----- ------------  ---------------      ----- ------------  ---------------
    12     12.192647   1 C  px              235     11.246444   6 C  s         
    51    -10.911207   2 C  s                78     -9.216059   2 C  d  2      
   262      8.583885   6 C  d  2             15     -6.841111   1 C  px        
   216      6.683804   5 C  d  2            153     -5.863989   4 C  px        
   124     -5.777715   3 C  d  2            379     -5.787043  11 H  px        
 
 Vector   83  Occ=0.000000D+00  E= 3.960420D-01
              MO Center= -4.8D-02,  8.3D-01,  2.2D-04, r^2= 1.2D+01
   Bfn.  Coefficient  Atom+Function         Bfn.  Coefficient  Atom+Function  
  ----- ------------  ---------------      ----- ------------  ---------------
   152     -7.532626   4 C  pz              106      7.330691   3 C  pz        
   198      7.348073   5 C  pz               60     -6.474089   2 C  pz        
   244     -6.487934   6 C  pz              167     -6.333185   4 C  d -1      
   215      5.108089   5 C  d  1            123     -4.725717   3 C  d  1      
    14      4.575888   1 C  pz              259      4.060991   6 C  d -1      
 
 Vector   84  Occ=0.000000D+00  E= 4.017270D-01
              MO Center=  6.8D-03,  5.2D-01, -7.3D-04, r^2= 1.5D+01
   Bfn.  Coefficient  Atom+Function         Bfn.  Coefficient  Atom+Function  
  ----- ------------  ---------------      ----- ------------  ---------------
     5     51.559261   1 C  s               235    -20.560710   6 C  s         
    51    -18.870646   2 C  s                97    -17.398104   3 C  s         
   189    -17.290172   5 C  s               143     11.586543   4 C  s         
   142    -10.292192   4 C  s                 4     -9.648924   1 C  s         
    50     -8.325859   2 C  s               325      7.882658   9 H  s         
 
 Vector   85  Occ=0.000000D+00  E= 4.052898D-01
              MO Center=  6.5D-03,  9.1D-02, -6.9D-05, r^2= 1.3D+01
   Bfn.  Coefficient  Atom+Function         Bfn.  Coefficient  Atom+Function  
  ----- ------------  ---------------      ----- ------------  ---------------
     5     33.924954   1 C  s               143     17.775017   4 C  s         
    51    -13.304503   2 C  s               235    -12.732072   6 C  s         
   188     10.238817   5 C  s                96      9.752289   3 C  s         
    97     -7.800957   3 C  s               189     -7.254372   5 C  s         
   262      7.209411   6 C  d  2             78      6.678132   2 C  d  2      
 
 Vector   86  Occ=0.000000D+00  E= 4.130586D-01
[...]
     Occ.   19 beta  a   ---  Virt.   24 beta  a   -0.21745 X
     Occ.   20 beta  a   ---  Virt.   22 beta  a    0.14236 X
  ----------------------------------------------------------------------------
  Root  27         a              0.251965516 a.u.                6.8563 eV 
  <S2> =   1.6617
  ----------------------------------------------------------------------------
     Transition Moments    X -0.00001   Y -0.00000   Z -0.24421
     Transition Moments   XX -0.00005  XY  0.00006  XZ  0.03597
     Transition Moments   YY -0.00012  YZ -0.16535  ZZ -0.00003
     Dipole Oscillator Strength                    0.0100178277
     Electric Quadrupole                           0.0000000024
     Magnetic Dipole                               0.0000000310
     Total Oscillator Strength                     0.0100178611
 
     Occ.   19 alpha a   ---  Virt.   26 alpha a   -0.97224 X
     Occ.   19 alpha a   ---  Virt.   35 alpha a    0.07045 X
     Occ.   19 alpha a   ---  Virt.   36 alpha a    0.07295 X
     Occ.   20 alpha a   ---  Virt.   25 alpha a   -0.11714 X
     Occ.   20 alpha a   ---  Virt.   26 alpha a   -0.13791 X
     Occ.   20 beta  a   ---  Virt.   26 beta  a   -0.05059 X
  ----------------------------------------------------------------------------
  Root  28         a              0.252670598 a.u.                6.8755 eV 
  <S2> =   1.8937
  ----------------------------------------------------------------------------
     Transition Moments    X -0.00003   Y -0.00001   Z -0.01478
     Transition Moments   XX -0.00001  XY  0.00002  XZ -0.39110
     Transition Moments   YY -0.00008  YZ -0.03430  ZZ -0.00002
     Dipole Oscillator Strength                    0.0000368111
     Electric Quadrupole                           0.0000000132
     Magnetic Dipole                               0.0000000097
     Total Oscillator Strength                     0.0000368340
 
     Occ.   19 alpha a   ---  Virt.   25 alpha a    0.24454 X
     Occ.   19 alpha a   ---  Virt.   26 alpha a   -0.13783 X
     Occ.   20 alpha a   ---  Virt.   26 alpha a    0.95084 X
     Occ.   20 alpha a   ---  Virt.   35 alpha a   -0.06089 X
     Occ.   20 alpha a   ---  Virt.   36 alpha a   -0.06484 X
     Occ.   19 beta  a   ---  Virt.   26 beta  a   -0.06754 X
  ----------------------------------------------------------------------------
  Root  29         a              0.253988428 a.u.                6.9114 eV 
  <S2> =   1.6127
  ----------------------------------------------------------------------------
     Transition Moments    X  0.00006   Y -0.00002   Z -0.00191
     Transition Moments   XX -0.00003  XY  0.00004  XZ -0.49463
     Transition Moments   YY -0.00011  YZ -0.03090  ZZ -0.00003
     Dipole Oscillator Strength                    0.0000006174
     Electric Quadrupole                           0.0000000214
     Magnetic Dipole                               0.0000000110
     Total Oscillator Strength                     0.0000006498
 
     Occ.   20 alpha a   ---  Virt.   26 alpha a    0.07157 X
     Occ.   19 beta  a   ---  Virt.   26 beta  a    0.98504 X
     Occ.   19 beta  a   ---  Virt.   35 beta  a   -0.05777 X
     Occ.   19 beta  a   ---  Virt.   36 beta  a   -0.07403 X
     Occ.   20 beta  a   ---  Virt.   25 beta  a    0.09665 X
  ----------------------------------------------------------------------------
  Root  30         a              0.254731264 a.u.                6.9316 eV 
  <S2> =   0.7699
  ----------------------------------------------------------------------------
     Transition Moments    X -1.50721   Y -0.07632   Z  0.00002
     Transition Moments   XX -0.00610  XY  0.18640  XZ -0.00004
     Transition Moments   YY  0.02862  YZ  0.00002  ZZ  0.00175
     Dipole Oscillator Strength                    0.3867701895
     Electric Quadrupole                           0.0000000031
     Magnetic Dipole                               0.0000000175
     Total Oscillator Strength                     0.3867702102
 
     Occ.   19 alpha a   ---  Virt.   22 alpha a   -0.37920 X
     Occ.   19 alpha a   ---  Virt.   22 alpha a    0.05302 Y
     Occ.   20 alpha a   ---  Virt.   23 alpha a    0.42625 X
     Occ.   20 alpha a   ---  Virt.   23 alpha a   -0.05095 Y
     Occ.   20 alpha a   ---  Virt.   29 alpha a   -0.14032 X
     Occ.   21 alpha a   ---  Virt.   25 alpha a    0.07576 X
     Occ.   21 alpha a   ---  Virt.   27 alpha a   -0.38374 X
     Occ.   13 beta  a   ---  Virt.   21 beta  a    0.12679 X
     Occ.   15 beta  a   ---  Virt.   21 beta  a    0.27164 X
     Occ.   19 beta  a   ---  Virt.   24 beta  a    0.49960 X
     Occ.   19 beta  a   ---  Virt.   29 beta  a   -0.13937 X
     Occ.   20 beta  a   ---  Virt.   22 beta  a   -0.34939 X
     Occ.   20 beta  a   ---  Virt.   22 beta  a    0.05625 Y
  ----------------------------------------------------------------------------
  Root  31         a              0.255324294 a.u.                6.9477 eV 
  <S2> =   0.8003
  ----------------------------------------------------------------------------
     Transition Moments    X  0.02263   Y -0.63665   Z -0.00000
     Transition Moments   XX -0.65157  XY  0.07957  XZ  0.00002
     Transition Moments   YY -1.88695  YZ -0.00003  ZZ -0.14714
     Dipole Oscillator Strength                    0.0690804625
     Electric Quadrupole                           0.0000000716
     Magnetic Dipole                               0.0000000000
     Total Oscillator Strength                     0.0690805341
 
     Occ.   19 alpha a   ---  Virt.   23 alpha a    0.10445 X
     Occ.   20 alpha a   ---  Virt.   22 alpha a    0.11387 X
     Occ.   21 alpha a   ---  Virt.   26 alpha a    0.18444 X
     Occ.   21 alpha a   ---  Virt.   28 alpha a   -0.91012 X
     Occ.   21 alpha a   ---  Virt.   30 alpha a   -0.12828 X
     Occ.   21 alpha a   ---  Virt.   31 alpha a   -0.16294 X
     Occ.   21 alpha a   ---  Virt.   48 alpha a    0.05655 X
     Occ.   16 beta  a   ---  Virt.   21 beta  a    0.18748 X
     Occ.   19 beta  a   ---  Virt.   22 beta  a    0.10938 X
     Occ.   20 beta  a   ---  Virt.   24 beta  a    0.09604 X
  ----------------------------------------------------------------------------
  Root  32         a              0.260671482 a.u.                7.0932 eV 
  <S2> =   0.7993
  ----------------------------------------------------------------------------
     Transition Moments    X -0.00001   Y  0.00001   Z -0.09570
     Transition Moments   XX  0.00001  XY  0.00001  XZ  0.04331
     Transition Moments   YY  0.00003  YZ -0.70602  ZZ -0.00000
     Dipole Oscillator Strength                    0.0015915804
     Electric Quadrupole                           0.0000000472
     Magnetic Dipole                               0.0000000334
     Total Oscillator Strength                     0.0015916610
 
     Occ.   21 alpha a   ---  Virt.   29 alpha a    0.97946 X
     Occ.   21 alpha a   ---  Virt.   33 alpha a    0.18003 X
  ----------------------------------------------------------------------------
  Root  33         a              0.265424268 a.u.                7.2226 eV 
  <S2> =   1.7807
  ----------------------------------------------------------------------------
     Transition Moments    X -0.00001   Y -0.00001   Z  0.00005
     Transition Moments   XX  0.00006  XY -0.00002  XZ -0.54622
     Transition Moments   YY  0.00003  YZ -0.03117  ZZ  0.00003
     Dipole Oscillator Strength                    0.0000000005
     Electric Quadrupole                           0.0000000298
     Magnetic Dipole                               0.0000000005
     Total Oscillator Strength                     0.0000000309
 
     Occ.   20 beta  a   ---  Virt.   27 beta  a   -0.99107 X
     Occ.   20 beta  a   ---  Virt.   38 beta  a    0.09650 X
  ----------------------------------------------------------------------------
  Root  34         a              0.267151287 a.u.                7.2696 eV 
  <S2> =   0.8198
  ----------------------------------------------------------------------------
     Transition Moments    X -0.06633   Y  1.19909   Z -0.00000
     Transition Moments   XX -0.01078  XY  0.04078  XZ -0.00001
     Transition Moments   YY -0.69845  YZ -0.00006  ZZ -0.04394
     Dipole Oscillator Strength                    0.2568591615
     Electric Quadrupole                           0.0000000154
     Magnetic Dipole                               0.0000000000
     Total Oscillator Strength                     0.2568591770
 
     Occ.   17 alpha a   ---  Virt.   23 alpha a    0.08500 X
     Occ.   19 alpha a   ---  Virt.   23 alpha a   -0.30376 X
     Occ.   19 alpha a   ---  Virt.   29 alpha a   -0.16066 X
     Occ.   20 alpha a   ---  Virt.   22 alpha a   -0.22207 X
     Occ.   21 alpha a   ---  Virt.   28 alpha a   -0.30017 X
     Occ.   21 alpha a   ---  Virt.   30 alpha a    0.43334 X
     Occ.   21 alpha a   ---  Virt.   31 alpha a   -0.08105 X
     Occ.   14 beta  a   ---  Virt.   21 beta  a    0.08660 X
     Occ.   16 beta  a   ---  Virt.   21 beta  a   -0.49999 X
     Occ.   19 beta  a   ---  Virt.   22 beta  a   -0.22357 X
     Occ.   20 beta  a   ---  Virt.   24 beta  a   -0.30708 X
     Occ.   20 beta  a   ---  Virt.   29 beta  a   -0.34101 X
  ----------------------------------------------------------------------------
  Root  35         a              0.270841382 a.u.                7.3700 eV 
  <S2> =   2.7168
  ----------------------------------------------------------------------------
     Transition Moments    X -0.00000   Y -0.00001   Z -0.00925
     Transition Moments   XX  0.00000  XY -0.00001  XZ  0.02659
     Transition Moments   YY  0.00002  YZ -0.13174  ZZ -0.00000
     Dipole Oscillator Strength                    0.0000154521
     Electric Quadrupole                           0.0000000019
     Magnetic Dipole                               0.0000000000
     Total Oscillator Strength                     0.0000154541
 
     Occ.   20 alpha a   ---  Virt.   27 alpha a    0.78214 X
     Occ.   20 alpha a   ---  Virt.   38 alpha a   -0.08666 X
     Occ.   19 beta  a   ---  Virt.   27 beta  a   -0.59554 X
     Occ.   19 beta  a   ---  Virt.   38 beta  a    0.06993 X
     Occ.   20 beta  a   ---  Virt.   28 beta  a   -0.05474 X
     Occ.   20 beta  a   ---  Virt.   30 beta  a   -0.06189 X
  ----------------------------------------------------------------------------
  Root  36         a              0.271246447 a.u.                7.3810 eV 
  <S2> =   2.7412
  ----------------------------------------------------------------------------
     Transition Moments    X  0.04830   Y  0.00003   Z -0.00000
     Transition Moments   XX  0.00805  XY -0.02754  XZ  0.00002
     Transition Moments   YY -0.00651  YZ -0.00003  ZZ  0.00131
     Dipole Oscillator Strength                    0.0004218386
     Electric Quadrupole                           0.0000000001
     Magnetic Dipole                               0.0000000018
     Total Oscillator Strength                     0.0004218405
 
     Occ.   17 alpha a   ---  Virt.   22 alpha a    0.59838 X
     Occ.   17 alpha a   ---  Virt.   41 alpha a   -0.05241 X
     Occ.   19 alpha a   ---  Virt.   32 alpha a   -0.08350 X
     Occ.   20 alpha a   ---  Virt.   29 alpha a    0.16027 X
     Occ.   20 alpha a   ---  Virt.   44 alpha a   -0.22684 X
     Occ.   20 alpha a   ---  Virt.   47 alpha a    0.17354 X
     Occ.   17 beta  a   ---  Virt.   22 beta  a   -0.64457 X
     Occ.   17 beta  a   ---  Virt.   41 beta  a    0.05433 X
     Occ.   19 beta  a   ---  Virt.   29 beta  a   -0.10421 X
     Occ.   19 beta  a   ---  Virt.   44 beta  a    0.20074 X
     Occ.   19 beta  a   ---  Virt.   47 beta  a   -0.16675 X
     Occ.   20 beta  a   ---  Virt.   31 beta  a    0.10178 X
  ----------------------------------------------------------------------------
  Root  37         a              0.271694867 a.u.                7.3932 eV 
  <S2> =   1.0348
  ----------------------------------------------------------------------------
     Transition Moments    X  0.02806   Y -0.53003   Z  0.00000
     Transition Moments   XX  1.06482  XY  0.11307  XZ -0.00000
     Transition Moments   YY -0.75965  YZ  0.00002  ZZ  0.24140
     Dipole Oscillator Strength                    0.0510284230
     Electric Quadrupole                           0.0000000905
     Magnetic Dipole                               0.0000000000
     Total Oscillator Strength                     0.0510285135
 
     Occ.   17 alpha a   ---  Virt.   23 alpha a   -0.06377 X
     Occ.   19 alpha a   ---  Virt.   23 alpha a    0.09616 X
     Occ.   21 alpha a   ---  Virt.   30 alpha a    0.79938 X
     Occ.   21 alpha a   ---  Virt.   31 alpha a   -0.20706 X
     Occ.   21 alpha a   ---  Virt.   35 alpha a    0.07546 X
     Occ.   21 alpha a   ---  Virt.   40 alpha a   -0.05690 X
     Occ.   14 beta  a   ---  Virt.   21 beta  a   -0.06427 X
     Occ.   16 beta  a   ---  Virt.   21 beta  a    0.19622 X
     Occ.   19 beta  a   ---  Virt.   22 beta  a    0.06219 X
     Occ.   20 beta  a   ---  Virt.   24 beta  a    0.10122 X
     Occ.   20 beta  a   ---  Virt.   29 beta  a    0.47385 X
  ----------------------------------------------------------------------------
  Root  38         a              0.271826138 a.u.                7.3968 eV 
  <S2> =   0.8200
  ----------------------------------------------------------------------------
     Transition Moments    X  0.00001   Y -0.00003   Z  0.02496
     Transition Moments   XX  0.00006  XY  0.00006  XZ -0.09031
     Transition Moments   YY -0.00011  YZ  0.87069  ZZ  0.00003
     Dipole Oscillator Strength                    0.0001128951
     Electric Quadrupole                           0.0000000820
     Magnetic Dipole                               0.0000000038
     Total Oscillator Strength                     0.0001129808
 
     Occ.   20 alpha a   ---  Virt.   27 alpha a   -0.59306 X
     Occ.   20 alpha a   ---  Virt.   38 alpha a    0.05092 X
     Occ.   19 beta  a   ---  Virt.   27 beta  a   -0.78645 X
     Occ.   19 beta  a   ---  Virt.   38 beta  a    0.07342 X
     Occ.   20 beta  a   ---  Virt.   28 beta  a    0.12703 X
  ----------------------------------------------------------------------------
  Root  39         a              0.272285841 a.u.                7.4093 eV 
  <S2> =   1.7216
  ----------------------------------------------------------------------------
     Transition Moments    X  0.00001   Y -0.00001   Z  0.00225
     Transition Moments   XX -0.00006  XY  0.00003  XZ  0.54336
     Transition Moments   YY -0.00002  YZ  0.09813  ZZ -0.00003
     Dipole Oscillator Strength                    0.0000009181
     Electric Quadrupole                           0.0000000328
     Magnetic Dipole                               0.0000000013
     Total Oscillator Strength                     0.0000009522
 
     Occ.   19 alpha a   ---  Virt.   27 alpha a    0.98945 X
     Occ.   19 alpha a   ---  Virt.   38 alpha a   -0.09580 X
  ----------------------------------------------------------------------------
  Root  40         a              0.272525358 a.u.                7.4158 eV 
  <S2> =   1.9634
  ----------------------------------------------------------------------------
     Transition Moments    X  0.00001   Y -0.00004   Z -0.04152
     Transition Moments   XX -0.00003  XY -0.00003  XZ  0.03019
     Transition Moments   YY -0.00005  YZ -0.44084  ZZ -0.00001
     Dipole Oscillator Strength                    0.0003132242
     Electric Quadrupole                           0.0000000210
     Magnetic Dipole                               0.0000000053
     Total Oscillator Strength                     0.0003132505
 
     Occ.   19 alpha a   ---  Virt.   28 alpha a    0.11705 X
     Occ.   20 alpha a   ---  Virt.   27 alpha a   -0.12798 X
     Occ.   17 beta  a   ---  Virt.   21 beta  a    0.05490 X
     Occ.   19 beta  a   ---  Virt.   27 beta  a   -0.06370 X
     Occ.   20 beta  a   ---  Virt.   28 beta  a   -0.96941 X
     Occ.   20 beta  a   ---  Virt.   30 beta  a   -0.05589 X
     Occ.   20 beta  a   ---  Virt.   32 beta  a   -0.07479 X
     Occ.   20 beta  a   ---  Virt.   43 beta  a   -0.08094 X
 
              Target root =      1
          Target symmetry = none
      Ground state energy =   -231.646315698380
        Excitation energy =      0.106132593167
     Excited state energy =   -231.540183105213
 
  stored tddft:energy   -231.540183105213     

 Task  times  cpu:     2879.0s     wall:     2976.6s
 
 
                                NWChem Input Module
                                -------------------
 
 
 Summary of allocated global arrays
-----------------------------------
  No active global arrays



                         GA Statistics for process    0
                         ------------------------------

       create   destroy   get      put      acc     scatter   gather  read&inc
calls: 9544     9544     1.02e+07 4.29e+06 2.56e+06 5660        0      255     
number of processes/call 1.31e+00 1.71e+00 1.90e+00 0.00e+00 0.00e+00
bytes total:             8.92e+10 1.16e+10 9.82e+10 6.26e+04 0.00e+00 2.04e+03
bytes remote:            6.51e+10 1.09e+09 9.36e+10 0.00e+00 0.00e+00 0.00e+00
Max memory consumed for GA by this process: 205086464 bytes
 
MA_summarize_allocated_blocks: starting scan ...
MA_summarize_allocated_blocks: scan completed: 0 heap blocks, 0 stack blocks
MA usage statistics:

	allocation statistics:
					      heap	     stack
					      ----	     -----
	current number of blocks	         0	         0
	maximum number of blocks	        20	        52
	current total bytes		         0	         0
	maximum total bytes		   1165984	  68276424
	maximum total K-bytes		      1166	     68277
	maximum total M-bytes		         2	        69
 
 
                                     CITATION
                                     --------
                Please cite the following reference when publishing
                           results obtained with NWChem:
 
                 M. Valiev, E.J. Bylaska, N. Govind, K. Kowalski,
              T.P. Straatsma, H.J.J. van Dam, D. Wang, J. Nieplocha,
                        E. Apra, T.L. Windus, W.A. de Jong
                 "NWChem: a comprehensive and scalable open-source
                  solution for large scale molecular simulations"
                      Comput. Phys. Commun. 181, 1477 (2010)
                           doi:10.1016/j.cpc.2010.04.018
 
                                      AUTHORS
                                      -------
          E. Apra, E. J. Bylaska, W. A. de Jong, N. Govind, K. Kowalski,
       T. P. Straatsma, M. Valiev, H. J. J. van Dam, D. Wang, T. L. Windus,
        J. Hammond, J. Autschbach, K. Bhaskaran-Nair, J. Brabec, K. Lopata,
    S. A. Fischer, S. Krishnamoorthy, M. Jacquelin, W. Ma, M. Klemm, O. Villa,
      Y. Chen, V. Anisimov, F. Aquino, S. Hirata, M. T. Hackler, V. Konjkov,
            D. Mejia-Rodriguez, T. Risthaus, M. Malagoli, A. Marenich,
   A. Otero-de-la-Roza, J. Mullin, P. Nichols, R. Peverati, J. Pittner, Y. Zhao,
        P.-D. Fan, A. Fonari, M. J. Williamson, R. J. Harrison, J. R. Rehr,
      M. Dupuis, D. Silverstein, D. M. A. Smith, J. Nieplocha, V. Tipparaju,
    M. Krishnan, B. E. Van Kuiken, A. Vazquez-Mayagoitia, L. Jensen, M. Swart,
      Q. Wu, T. Van Voorhis, A. A. Auer, M. Nooijen, L. D. Crosby, E. Brown,
      G. Cisneros, G. I. Fann, H. Fruchtl, J. Garza, K. Hirao, R. A. Kendall,
      J. A. Nichols, K. Tsemekhman, K. Wolinski, J. Anchell, D. E. Bernholdt,
      P. Borowski, T. Clark, D. Clerc, H. Dachsel, M. J. O. Deegan, K. Dyall,
    D. Elwood, E. Glendening, M. Gutowski, A. C. Hess, J. Jaffe, B. G. Johnson,
     J. Ju, R. Kobayashi, R. Kutteh, Z. Lin, R. Littlefield, X. Long, B. Meng,
      T. Nakajima, S. Niu, L. Pollack, M. Rosing, K. Glaesemann, G. Sandrone,
      M. Stave, H. Taylor, G. Thomas, J. H. van Lenthe, A. T. Wong, Z. Zhang.

 Total times  cpu:     2879.0s     wall:     2977.7s
