 argument  1 = /storage/home/j/jbb5516/normalModes/mode1569.96-m.nw
 


============================== echo of input deck ==============================
echo
start

title "None"

geometry
C    -0.08749940    1.38873187    0.00000005
C    -1.26740960    0.69005939   -0.00000002
C    -1.16805211   -0.70320933   -0.00000002
C     0.08297682   -1.31695259    0.00000004
C     1.24707805   -0.55104053   -0.00000001
C     1.17077388    0.84368100    0.00000005
H    -2.23114286    1.18127333   -0.00000010
H    -2.06570050   -1.30829220   -0.00000009
H     0.15099217   -2.39645819    0.00000000
H     2.21357468   -1.03866954   -0.00000013
H     2.06523137    1.45197283   -0.00000010
symmetry c1
end

basis spherical
 * library "aug-cc-pvtz"
end

dft
 direct
 mult 2
 iterations 500
 xc b3lyp
end

tddft
 nroots 40
 notriplet
 algorithm 1
end
task tddft energy
================================================================================


                                         
                                         
 
 
              Northwest Computational Chemistry Package (NWChem) 6.8
              ------------------------------------------------------
 
 
                    Environmental Molecular Sciences Laboratory
                       Pacific Northwest National Laboratory
                                Richland, WA 99352
 
                              Copyright (c) 1994-2017
                       Pacific Northwest National Laboratory
                            Battelle Memorial Institute
 
             NWChem is an open-source computational chemistry package
                        distributed under the terms of the
                      Educational Community License (ECL) 2.0
             A copy of the license is included with this distribution
                              in the LICENSE.TXT file
 
                                  ACKNOWLEDGMENT
                                  --------------

            This software and its documentation were developed at the
            EMSL at Pacific Northwest National Laboratory, a multiprogram
            national laboratory, operated for the U.S. Department of Energy
            by Battelle under Contract Number DE-AC05-76RL01830. Support
            for this work was provided by the Department of Energy Office
            of Biological and Environmental Research, Office of Basic
            Energy Sciences, and the Office of Advanced Scientific Computing.


           Job information
           ---------------

    hostname        = comp-sc-0114.acib.production.int.aci.ics.psu.edu
    program         = /gpfs/group/lxj18/default/jeffprograms/nwchem-6.8.1/bin/LINUX64/nwchem
    date            = Sun Sep 20 17:10:32 2020

    compiled        = Wed_Oct_03_14:08:39_2018
    source          = /gpfs/group/lxj18/default/jeffprograms/nwchem-6.8.1
    nwchem branch   = 6.8.1
    nwchem revision = v6.8-143-gdb0d964
    ga revision     = 5.6.5
    use scalapack   = F
    input           = /storage/home/j/jbb5516/normalModes/mode1569.96-m.nw
    prefix          = mode1569.96-m.
    data base       = ./mode1569.96-m.db
    status          = startup
    nproc           =       20
    time left       =     -1s



           Memory information
           ------------------

    heap     =   13107200 doubles =    100.0 Mbytes
    stack    =   13107197 doubles =    100.0 Mbytes
    global   =   26214400 doubles =    200.0 Mbytes (distinct from heap & stack)
    total    =   52428797 doubles =    400.0 Mbytes
    verify   = yes
    hardfail = no 


           Directory information
           ---------------------
 
  0 permanent = .
  0 scratch   = .
 
 
 
 
                                NWChem Input Module
                                -------------------
 
 
                                       None
                                       ----

 Scaling coordinates for geometry "geometry" by  1.889725989
 (inverse scale =  0.529177249)

 Turning off AUTOSYM since
 SYMMETRY directive was detected!
 

          ------
          auto-z
          ------
 
 
                             Geometry "geometry" -> ""
                             -------------------------
 
 Output coordinates in angstroms (scale by  1.889725989 to convert to a.u.)
 
  No.       Tag          Charge          X              Y              Z
 ---- ---------------- ---------- -------------- -------------- --------------
    1 C                    6.0000    -0.08750332     1.38879418     0.00000005
    2 C                    6.0000    -1.26741352     0.69012170    -0.00000002
    3 C                    6.0000    -1.16805603    -0.70314702    -0.00000002
    4 C                    6.0000     0.08297290    -1.31689028     0.00000004
    5 C                    6.0000     1.24707413    -0.55097822    -0.00000001
    6 C                    6.0000     1.17076996     0.84374331     0.00000005
    7 H                    1.0000    -2.23114678     1.18133564    -0.00000010
    8 H                    1.0000    -2.06570442    -1.30822989    -0.00000009
    9 H                    1.0000     0.15098825    -2.39639588    -0.00000000
   10 H                    1.0000     2.21357076    -1.03860723    -0.00000013
   11 H                    1.0000     2.06522745     1.45203514    -0.00000010
 
      Atomic Mass 
      ----------- 
 
      C                 12.000000
      H                  1.007825
 

 Effective nuclear repulsion energy (a.u.)     195.0644616086

            Nuclear Dipole moment (a.u.) 
            ----------------------------
        X                 Y               Z
 ---------------- ---------------- ----------------
     0.0000000000    -0.0000000000     0.0000000000
 


                                Z-matrix (autoz)
                                -------- 

 Units are Angstrom for bonds and degrees for angles
 
      Type          Name      I     J     K     L     M      Value
      ----------- --------  ----- ----- ----- ----- ----- ----------
    1 Stretch                  1     2                       1.37125
    2 Stretch                  1     6                       1.37125
    3 Stretch                  2     3                       1.39681
    4 Stretch                  2     7                       1.08170
    5 Stretch                  3     4                       1.39347
    6 Stretch                  3     8                       1.08254
    7 Stretch                  4     5                       1.39347
    8 Stretch                  4     9                       1.08165
    9 Stretch                  5     6                       1.39681
   10 Stretch                  5    10                       1.08254
   11 Stretch                  6    11                       1.08170
   12 Bend                     1     2     3               116.55249
   13 Bend                     1     2     7               122.36062
   14 Bend                     1     6     5               116.55248
   15 Bend                     1     6    11               122.36065
   16 Bend                     2     1     6               125.94752
   17 Bend                     2     3     4               120.21114
   18 Bend                     2     3     8               119.90395
   19 Bend                     3     2     7               121.08690
   20 Bend                     3     4     5               120.52523
   21 Bend                     3     4     9               119.73736
   22 Bend                     4     3     8               119.88491
   23 Bend                     4     5     6               120.21114
   24 Bend                     4     5    10               119.88494
   25 Bend                     5     4     9               119.73742
   26 Bend                     5     6    11               121.08688
   27 Bend                     6     5    10               119.90392
   28 Torsion                  1     2     3     4           0.00000
   29 Torsion                  1     2     3     8        -180.00000
   30 Torsion                  1     6     5     4           0.00000
   31 Torsion                  1     6     5    10         180.00000
   32 Torsion                  2     1     6     5           0.00000
   33 Torsion                  2     1     6    11         180.00000
   34 Torsion                  2     3     4     5           0.00000
   35 Torsion                  2     3     4     9        -180.00000
   36 Torsion                  3     2     1     6           0.00000
   37 Torsion                  3     4     5     6           0.00000
   38 Torsion                  3     4     5    10        -180.00000
   39 Torsion                  4     3     2     7         180.00000
   40 Torsion                  4     5     6    11        -180.00000
   41 Torsion                  5     4     3     8         180.00000
   42 Torsion                  6     1     2     7        -180.00000
   43 Torsion                  6     5     4     9        -180.00000
   44 Torsion                  7     2     3     8           0.00000
   45 Torsion                  8     3     4     9           0.00000
   46 Torsion                  9     4     5    10           0.00000
   47 Torsion                 10     5     6    11           0.00000
 
 
            XYZ format geometry
            -------------------
    11
 geometry
 C                    -0.08750332     1.38879418     0.00000005
 C                    -1.26741352     0.69012170    -0.00000002
 C                    -1.16805603    -0.70314702    -0.00000002
 C                     0.08297290    -1.31689028     0.00000004
 C                     1.24707413    -0.55097822    -0.00000001
 C                     1.17076996     0.84374331     0.00000005
 H                    -2.23114678     1.18133564    -0.00000010
 H                    -2.06570442    -1.30822989    -0.00000009
 H                     0.15098825    -2.39639588    -0.00000000
 H                     2.21357076    -1.03860723    -0.00000013
 H                     2.06522745     1.45203514    -0.00000010
 
 ==============================================================================
                                internuclear distances
 ------------------------------------------------------------------------------
       center one      |      center two      | atomic units |  angstroms
 ------------------------------------------------------------------------------
    2 C                |   1 C                |     2.59129  |     1.37125
    3 C                |   2 C                |     2.63958  |     1.39681
    4 C                |   3 C                |     2.63327  |     1.39347
    5 C                |   4 C                |     2.63327  |     1.39347
    6 C                |   1 C                |     2.59129  |     1.37125
    6 C                |   5 C                |     2.63958  |     1.39681
    7 H                |   2 C                |     2.04411  |     1.08170
    8 H                |   3 C                |     2.04571  |     1.08254
    9 H                |   4 C                |     2.04401  |     1.08165
   10 H                |   5 C                |     2.04571  |     1.08254
   11 H                |   6 C                |     2.04412  |     1.08170
 ------------------------------------------------------------------------------
                         number of included internuclear distances:         11
 ==============================================================================



 ==============================================================================
                                 internuclear angles
 ------------------------------------------------------------------------------
        center 1       |       center 2       |       center 3       |  degrees
 ------------------------------------------------------------------------------
    2 C                |   1 C                |   6 C                |   125.95
    1 C                |   2 C                |   3 C                |   116.55
    1 C                |   2 C                |   7 H                |   122.36
    3 C                |   2 C                |   7 H                |   121.09
    2 C                |   3 C                |   4 C                |   120.21
    2 C                |   3 C                |   8 H                |   119.90
    4 C                |   3 C                |   8 H                |   119.88
    3 C                |   4 C                |   5 C                |   120.53
    3 C                |   4 C                |   9 H                |   119.74
    5 C                |   4 C                |   9 H                |   119.74
    4 C                |   5 C                |   6 C                |   120.21
    4 C                |   5 C                |  10 H                |   119.88
    6 C                |   5 C                |  10 H                |   119.90
    1 C                |   6 C                |   5 C                |   116.55
    1 C                |   6 C                |  11 H                |   122.36
    5 C                |   6 C                |  11 H                |   121.09
 ------------------------------------------------------------------------------
                            number of included internuclear angles:         16
 ==============================================================================





 Summary of "ao basis" -> "" (spherical)
 ------------------------------------------------------------------------------
       Tag                 Description            Shells   Functions and Types
 ---------------- ------------------------------  ------  ---------------------
 *                        aug-cc-pvtz                 on all atoms 


 
                                 NWChem DFT Module
                                 -----------------
 
 
                                       None
 
 
                      Basis "ao basis" -> "ao basis" (spherical)
                      -----
  C (Carbon)
  ----------
            Exponent  Coefficients 
       -------------- ---------------------------------------------------------
  1 S  8.23600000E+03  0.000531
  1 S  1.23500000E+03  0.004108
  1 S  2.80800000E+02  0.021087
  1 S  7.92700000E+01  0.081853
  1 S  2.55900000E+01  0.234817
  1 S  8.99700000E+00  0.434401
  1 S  3.31900000E+00  0.346129
  1 S  3.64300000E-01 -0.008983
 
  2 S  8.23600000E+03 -0.000113
  2 S  1.23500000E+03 -0.000878
  2 S  2.80800000E+02 -0.004540
  2 S  7.92700000E+01 -0.018133
  2 S  2.55900000E+01 -0.055760
  2 S  8.99700000E+00 -0.126895
  2 S  3.31900000E+00 -0.170352
  2 S  3.64300000E-01  0.598684
 
  3 S  9.05900000E-01  1.000000
 
  4 S  1.28500000E-01  1.000000
 
  5 S  4.40200000E-02  1.000000
 
  6 P  1.87100000E+01  0.014031
  6 P  4.13300000E+00  0.086866
  6 P  1.20000000E+00  0.290216
 
  7 P  3.82700000E-01  1.000000
 
  8 P  1.20900000E-01  1.000000
 
  9 P  3.56900000E-02  1.000000
 
 10 D  1.09700000E+00  1.000000
 
 11 D  3.18000000E-01  1.000000
 
 12 D  1.00000000E-01  1.000000
 
 13 F  7.61000000E-01  1.000000
 
 14 F  2.68000000E-01  1.000000
 
  H (Hydrogen)
  ------------
            Exponent  Coefficients 
       -------------- ---------------------------------------------------------
  1 S  3.38700000E+01  0.006068
  1 S  5.09500000E+00  0.045308
  1 S  1.15900000E+00  0.202822
 
  2 S  3.25800000E-01  1.000000
 
  3 S  1.02700000E-01  1.000000
 
  4 S  2.52600000E-02  1.000000
 
  5 P  1.40700000E+00  1.000000
 
  6 P  3.88000000E-01  1.000000
 
  7 P  1.02000000E-01  1.000000
 
  8 D  1.05700000E+00  1.000000
 
  9 D  2.47000000E-01  1.000000
 


 Summary of "ao basis" -> "ao basis" (spherical)
 ------------------------------------------------------------------------------
       Tag                 Description            Shells   Functions and Types
 ---------------- ------------------------------  ------  ---------------------
 C                        aug-cc-pvtz               14       46   5s4p3d2f
 H                        aug-cc-pvtz                9       23   4s3p2d




 Summary of "ao basis" -> "ao basis" (spherical)
 ------------------------------------------------------------------------------
       Tag                 Description            Shells   Functions and Types
 ---------------- ------------------------------  ------  ---------------------
 C                        aug-cc-pvtz               14       46   5s4p3d2f
 H                        aug-cc-pvtz                9       23   4s3p2d


  Caching 1-el integrals 
 
            General Information
            -------------------
          SCF calculation type: DFT
          Wavefunction type:  spin polarized.
          No. of atoms     :    11
          No. of electrons :    41
           Alpha electrons :    21
            Beta electrons :    20
          Charge           :     0
          Spin multiplicity:     2
          Use of symmetry is: off; symmetry adaption is: off
          Maximum number of iterations: 500
          This is a Direct SCF calculation.
          AO basis - number of functions:   391
                     number of shells:   129
          Convergence on energy requested:  1.00D-06
          Convergence on density requested:  1.00D-05
          Convergence on gradient requested:  5.00D-04
 
              XC Information
              --------------
                         B3LYP Method XC Potential
                     Hartree-Fock (Exact) Exchange  0.200          
                        Slater Exchange Functional  0.800 local    
                    Becke 1988 Exchange Functional  0.720 non-local
              Lee-Yang-Parr Correlation Functional  0.810          
                  VWN I RPA Correlation Functional  0.190 local    
 
             Grid Information
             ----------------
          Grid used for XC integration:  medium    
          Radial quadrature: Mura-Knowles        
          Angular quadrature: Lebedev. 
          Tag              B.-S. Rad. Rad. Pts. Rad. Cut. Ang. Pts.
          ---              ---------- --------- --------- ---------
          C                   0.70       49          15.0       434
          H                   0.35       45          17.0       434
          Grid pruning is: on 
          Number of quadrature shells:   519
          Spatial weights used:  Erf1
 
          Convergence Information
          -----------------------
          Convergence aids based upon iterative change in 
          total energy or number of iterations. 
          Levelshifting, if invoked, occurs when the 
          HOMO/LUMO gap drops below (HL_TOL):  1.00D-02
          DIIS, if invoked, will attempt to extrapolate 
          using up to (NFOCK): 10 stored Fock matrices.

                    Damping( 0%)  Levelshifting(0.5)       DIIS
                  --------------- ------------------- ---------------
          dE  on:    start            ASAP                start   
          dE off:    2 iters        500 iters           500 iters 

 
      Screening Tolerance Information
      -------------------------------
          Density screening/tol_rho:  1.00D-10
          AO Gaussian exp screening on grid/accAOfunc:  14
          CD Gaussian exp screening on grid/accCDfunc:  20
          XC Gaussian exp screening on grid/accXCfunc:  20
          Schwarz screening/accCoul:  1.00D-08

 
 WARNING : Found     7 linear dependencies 
 S eigenvalue threshold:     1.00000E-05
 Smallest S eigenvalue :     1.45872E-06
 Largest  S eigenvalue :     7.74250E-06
 

 !! The overlap matrix has   7 vectors deemed linearly dependent with
    eigenvalues:
 1.46D-06 2.24D-06 2.82D-06 3.50D-06 5.28D-06 5.96D-06 7.74D-06
 
 
      Superposition of Atomic Density Guess
      -------------------------------------
 
 Sum of atomic energies:        -228.52307259
 
      Non-variational initial energy
      ------------------------------

 Total energy =    -232.667333
 1-e energy   =    -691.329709
 2-e energy   =     263.597914
 HOMO         =      -0.183839
 LUMO         =      -0.021698
 
   Time after variat. SCF:      9.0
   Time prior to 1st pass:      9.0

 Grid_pts file          = ./mode1569.96-m.gridpts.00
 Record size in doubles =  12289        No. of grid_pts per rec  =   3070
 Max. records in memory =      6        Max. recs in file   = 220933950

 Grid integrated density:      40.999766008772
 Requested integration accuracy:   0.10E-05

           Memory utilization after 1st SCF pass: 
           Heap Space remaining (MW):       12.96            12961280
          Stack Space remaining (MW):       13.10            13103676

   convergence    iter        energy       DeltaE   RMS-Dens  Diis-err    time
 ---------------- ----- ----------------- --------- --------- ---------  ------
 d= 0,ls=0.0,diis     1   -231.5817188424 -4.27D+02  6.35D-02  2.09D-01    19.8
                                                     7.18D-02  1.96D-01
 d= 0,ls=0.0,diis     2   -231.6398109936 -5.81D-02  6.25D-02  1.22D-02    30.5
                                                     7.07D-02  1.26D-02
 d= 0,ls=0.0,diis     3   -231.6446780648 -4.87D-03  1.30D-03  3.28D-03    41.3
                                                     1.41D-03  3.29D-03
 d= 0,ls=0.0,diis     4   -231.6457443485 -1.07D-03  1.96D-04  1.11D-03    52.0
                                                     2.01D-04  1.08D-03
 d= 0,ls=0.0,diis     5   -231.6462622154 -5.18D-04  3.39D-05  5.09D-05    62.8
                                                     3.04D-05  5.36D-05
  Resetting Diis
 d= 0,ls=0.0,diis     6   -231.6462914192 -2.92D-05  1.10D-05  1.19D-05    73.6
                                                     1.09D-05  1.12D-05
 d= 0,ls=0.0,diis     7   -231.6462998585 -8.44D-06  8.51D-06  2.60D-06    84.3
                                                     7.28D-06  2.41D-06
 d= 0,ls=0.0,diis     8   -231.6463008935 -1.03D-06  3.21D-06  6.23D-06    95.1
                                                     2.90D-06  5.79D-06
 d= 0,ls=0.0,diis     9   -231.6463047183 -3.82D-06  4.90D-06  3.95D-07   105.9
                                                     4.41D-06  3.41D-07
 d= 0,ls=0.0,diis    10   -231.6463064055 -1.69D-06  1.24D-06  1.07D-07   116.6
                                                     1.62D-06  2.14D-07
 d= 0,ls=0.0,diis    11   -231.6463066328 -2.27D-07  6.69D-07  2.49D-08   127.4
                                                     5.75D-07  1.06D-08


         Total DFT energy =     -231.646306632801
      One electron energy =     -696.561972337832
           Coulomb energy =      304.260502177436
    Exchange-Corr. energy =      -34.409298081007
 Nuclear repulsion energy =      195.064461608602

 Numeric. integr. density =       40.999984692014

     Total iterative time =    118.4s


 
                    DFT Final Alpha Molecular Orbital Analysis
                    ------------------------------------------
 
 Vector    1  Occ=1.000000D+00  E=-1.020552D+01
              MO Center= -8.7D-02,  1.4D+00,  4.8D-08, r^2= 3.0D-02
   Bfn.  Coefficient  Atom+Function         Bfn.  Coefficient  Atom+Function  
  ----- ------------  ---------------      ----- ------------  ---------------
     1      0.984183   1 C  s                 3      0.058831   1 C  s         
    50     -0.038105   2 C  s               143      0.037990   4 C  s         
   234     -0.038105   6 C  s               279      0.037972   7 H  s         
   371      0.037971  11 H  s                51     -0.030705   2 C  s         
   235     -0.030704   6 C  s         
 
 Vector    2  Occ=1.000000D+00  E=-1.019171D+01
              MO Center= -4.5D-01, -6.1D-01, -2.1D-08, r^2= 1.3D+00
   Bfn.  Coefficient  Atom+Function         Bfn.  Coefficient  Atom+Function  
  ----- ------------  ---------------      ----- ------------  ---------------
    93      0.807542   3 C  s               185      0.530048   5 C  s         
    47      0.163541   2 C  s               231      0.099719   6 C  s         
   142     -0.096686   4 C  s               139      0.060011   4 C  s         
   325      0.049784   9 H  s                95      0.048321   3 C  s         
   302      0.043412   8 H  s               187      0.031833   5 C  s         
 
 Vector    3  Occ=1.000000D+00  E=-1.019169D+01
              MO Center=  5.2D-01, -5.3D-01, -1.5D-08, r^2= 1.4D+00
   Bfn.  Coefficient  Atom+Function         Bfn.  Coefficient  Atom+Function  
  ----- ------------  ---------------      ----- ------------  ---------------
   185      0.805013   5 C  s                93     -0.526226   3 C  s         
   231      0.180920   6 C  s                47     -0.126096   2 C  s         
    50      0.062683   2 C  s               348      0.056442  10 H  s         
   234     -0.056001   6 C  s                51      0.053748   2 C  s         
   279     -0.051726   7 H  s               235     -0.050967   6 C  s         
 
 Vector    4  Occ=1.000000D+00  E=-1.019022D+01
              MO Center= -8.8D-01,  6.6D-01, -1.2D-08, r^2= 8.9D-01
   Bfn.  Coefficient  Atom+Function         Bfn.  Coefficient  Atom+Function  
  ----- ------------  ---------------      ----- ------------  ---------------
    47      0.886592   2 C  s               231      0.384576   6 C  s         
    93     -0.181581   3 C  s               185     -0.069040   5 C  s         
   279      0.056287   7 H  s                49      0.051967   2 C  s         
   143      0.042171   4 C  s                 4     -0.037563   1 C  s         
   142     -0.034996   4 C  s               325     -0.032098   9 H  s         
 
 Vector    5  Occ=1.000000D+00  E=-1.019021D+01
              MO Center=  7.9D-01,  7.5D-01,  3.4D-08, r^2= 9.0D-01
   Bfn.  Coefficient  Atom+Function         Bfn.  Coefficient  Atom+Function  
  ----- ------------  ---------------      ----- ------------  ---------------
   231      0.883746   6 C  s                47     -0.378006   2 C  s         
   185     -0.191312   5 C  s                93      0.091420   3 C  s         
   371      0.052059  11 H  s               233      0.051082   6 C  s         
    97      0.049260   3 C  s               189     -0.044935   5 C  s         
    96      0.043907   3 C  s               188     -0.041798   5 C  s         
 
 Vector    6  Occ=1.000000D+00  E=-1.018455D+01
              MO Center=  8.3D-02, -1.3D+00,  3.9D-08, r^2= 3.5D-02
   Bfn.  Coefficient  Atom+Function         Bfn.  Coefficient  Atom+Function  
  ----- ------------  ---------------      ----- ------------  ---------------
   139      0.984125   4 C  s               141      0.057752   4 C  s         
   325      0.046540   9 H  s                96     -0.045655   3 C  s         
   188     -0.045656   5 C  s               143     -0.043209   4 C  s         
    93     -0.041193   3 C  s               185     -0.041243   5 C  s         
     4      0.040289   1 C  s               151      0.035694   4 C  py        
 
 Vector    7  Occ=1.000000D+00  E=-8.724786D-01
              MO Center= -6.5D-03,  1.0D-01,  5.1D-09, r^2= 2.0D+00
   Bfn.  Coefficient  Atom+Function         Bfn.  Coefficient  Atom+Function  
  ----- ------------  ---------------      ----- ------------  ---------------
     2      0.214054   1 C  s                48      0.203162   2 C  s         
   232      0.203153   6 C  s                94      0.195593   3 C  s         
   186      0.195584   5 C  s               140      0.187184   4 C  s         
    50      0.092079   2 C  s               234      0.092074   6 C  s         
    96      0.088273   3 C  s               188      0.088270   5 C  s         
 
 Vector    8  Occ=1.000000D+00  E=-7.631035D-01
              MO Center= -6.4D-03,  1.0D-01,  1.9D-09, r^2= 2.8D+00
   Bfn.  Coefficient  Atom+Function         Bfn.  Coefficient  Atom+Function  
  ----- ------------  ---------------      ----- ------------  ---------------
    48      0.251131   2 C  s               232     -0.251135   6 C  s         
    94      0.243826   3 C  s               186     -0.243831   5 C  s         
    50      0.145233   2 C  s               234     -0.145240   6 C  s         
   279     -0.128921   7 H  s               371      0.128924  11 H  s         
   150     -0.115787   4 C  px               97      0.110178   3 C  s         
 
 Vector    9  Occ=1.000000D+00  E=-7.533409D-01
              MO Center=  9.4D-03, -1.5D-01, -2.7D-08, r^2= 2.6D+00
   Bfn.  Coefficient  Atom+Function         Bfn.  Coefficient  Atom+Function  
  ----- ------------  ---------------      ----- ------------  ---------------
   140     -0.300924   4 C  s                 2      0.278232   1 C  s         
   142     -0.150208   4 C  s                94     -0.149132   3 C  s         
   186     -0.149126   5 C  s                48      0.147528   2 C  s         
   232      0.147525   6 C  s                96     -0.105363   3 C  s         
   188     -0.105362   5 C  s                 4      0.104811   1 C  s         
 
 Vector   10  Occ=1.000000D+00  E=-6.184937D-01
              MO Center= -2.4D-03,  3.9D-02, -1.0D-08, r^2= 3.6D+00
   Bfn.  Coefficient  Atom+Function         Bfn.  Coefficient  Atom+Function  
  ----- ------------  ---------------      ----- ------------  ---------------
    94     -0.208494   3 C  s               186      0.208490   5 C  s         
    48      0.199165   2 C  s               232     -0.199169   6 C  s         
    50      0.182629   2 C  s               234     -0.182633   6 C  s         
    96     -0.146188   3 C  s               188      0.146180   5 C  s         
     6     -0.127142   1 C  px              144      0.116550   4 C  px        
 
 Vector   11  Occ=1.000000D+00  E=-6.037469D-01
              MO Center=  5.4D-03, -8.6D-02, -3.1D-08, r^2= 3.5D+00
   Bfn.  Coefficient  Atom+Function         Bfn.  Coefficient  Atom+Function  
  ----- ------------  ---------------      ----- ------------  ---------------
   142      0.258853   4 C  s                 2      0.239474   1 C  s         
   140      0.219297   4 C  s                 4      0.199089   1 C  s         
    94     -0.138200   3 C  s               186     -0.138210   5 C  s         
    50     -0.121901   2 C  s               234     -0.121895   6 C  s         
    96     -0.119235   3 C  s               188     -0.119244   5 C  s         
 
 Vector   12  Occ=1.000000D+00  E=-5.277929D-01
              MO Center=  9.1D-03, -1.5D-01, -1.1D-08, r^2= 4.1D+00
   Bfn.  Coefficient  Atom+Function         Bfn.  Coefficient  Atom+Function  
  ----- ------------  ---------------      ----- ------------  ---------------
   148      0.158558   4 C  py              145      0.138306   4 C  py        
   324     -0.126145   9 H  s                55      0.105683   2 C  px        
   240     -0.104924   6 C  py              323     -0.099949   9 H  s         
   237     -0.096234   6 C  py              193     -0.094752   5 C  px        
   278     -0.094865   7 H  s               370     -0.094862  11 H  s         
 
 Vector   13  Occ=1.000000D+00  E=-4.643422D-01
              MO Center= -6.6D-03,  1.0D-01,  8.5D-10, r^2= 2.7D+00
   Bfn.  Coefficient  Atom+Function         Bfn.  Coefficient  Atom+Function  
  ----- ------------  ---------------      ----- ------------  ---------------
     9      0.189513   1 C  px                6      0.175303   1 C  px        
   147      0.172259   4 C  px              144      0.158462   4 C  px        
   194     -0.137217   5 C  py              239     -0.135112   6 C  px        
    56     -0.133967   2 C  py              102      0.123460   3 C  py        
   191     -0.123864   5 C  py               53     -0.120682   2 C  py        
 
 Vector   14  Occ=1.000000D+00  E=-4.628954D-01
              MO Center=  1.0D-02, -1.6D-01, -4.3D-08, r^2= 4.8D+00
   Bfn.  Coefficient  Atom+Function         Bfn.  Coefficient  Atom+Function  
  ----- ------------  ---------------      ----- ------------  ---------------
     2      0.176851   1 C  s               301      0.137154   8 H  s         
   347      0.137141  10 H  s               140     -0.130047   4 C  s         
   193      0.127523   5 C  px              196      0.120748   5 C  px        
   101     -0.118446   3 C  px              190      0.118383   5 C  px        
   104     -0.117728   3 C  px               96      0.116837   3 C  s         
 
 Vector   15  Occ=1.000000D+00  E=-4.404551D-01
              MO Center= -1.3D-02,  2.1D-01, -2.6D-08, r^2= 4.0D+00
   Bfn.  Coefficient  Atom+Function         Bfn.  Coefficient  Atom+Function  
  ----- ------------  ---------------      ----- ------------  ---------------
   240      0.141537   6 C  py              102      0.136561   3 C  py        
    55      0.131826   2 C  px              278     -0.132287   7 H  s         
   370      0.132286  11 H  s               237      0.130808   6 C  py        
    99      0.127925   3 C  py               56     -0.125989   2 C  py        
   194     -0.123986   5 C  py               53     -0.117268   2 C  py        
 
 Vector   16  Occ=1.000000D+00  E=-3.994171D-01
              MO Center=  5.0D-02, -7.9D-01, -9.6D-09, r^2= 3.3D+00
   Bfn.  Coefficient  Atom+Function         Bfn.  Coefficient  Atom+Function  
  ----- ------------  ---------------      ----- ------------  ---------------
   148      0.234121   4 C  py              145      0.209659   4 C  py        
   324     -0.198819   9 H  s               151      0.172242   4 C  py        
   323     -0.154127   9 H  s                10      0.137684   1 C  py        
    13      0.120063   1 C  py              240      0.115048   6 C  py        
    56      0.109232   2 C  py              194     -0.108015   5 C  py        
 
 Vector   17  Occ=1.000000D+00  E=-3.837135D-01
              MO Center= -7.8D-03,  1.2D-01, -5.9D-08, r^2= 2.7D+00
   Bfn.  Coefficient  Atom+Function         Bfn.  Coefficient  Atom+Function  
  ----- ------------  ---------------      ----- ------------  ---------------
    11      0.173579   1 C  pz               57      0.156696   2 C  pz        
   241      0.156690   6 C  pz              103      0.152171   3 C  pz        
   195      0.152165   5 C  pz              149      0.145257   4 C  pz        
     8      0.136905   1 C  pz               54      0.126020   2 C  pz        
   238      0.126015   6 C  pz              100      0.121695   3 C  pz        
 
 Vector   18  Occ=1.000000D+00  E=-3.651157D-01
              MO Center=  9.3D-03, -1.5D-01, -2.7D-08, r^2= 4.1D+00
   Bfn.  Coefficient  Atom+Function         Bfn.  Coefficient  Atom+Function  
  ----- ------------  ---------------      ----- ------------  ---------------
   147     -0.170435   4 C  px              101      0.165565   3 C  px        
   193      0.165398   5 C  px              144     -0.160631   4 C  px        
     9      0.149161   1 C  px               98      0.149656   3 C  px        
   190      0.149280   5 C  px                6      0.141171   1 C  px        
   196      0.135758   5 C  px              104      0.133629   3 C  px        
 
 Vector   19  Occ=1.000000D+00  E=-2.682802D-01
              MO Center= -3.9D-03,  6.2D-02,  2.8D-07, r^2= 3.1D+00
   Bfn.  Coefficient  Atom+Function         Bfn.  Coefficient  Atom+Function  
  ----- ------------  ---------------      ----- ------------  ---------------
   103      0.207524   3 C  pz              195     -0.207422   5 C  pz        
    57      0.203890   2 C  pz              241     -0.203987   6 C  pz        
   100      0.165348   3 C  pz              192     -0.165267   5 C  pz        
    54      0.163273   2 C  pz              238     -0.163351   6 C  pz        
    60      0.150353   2 C  pz              106      0.149782   3 C  pz        
 
 Vector   20  Occ=1.000000D+00  E=-2.681029D-01
              MO Center=  1.1D-03, -1.7D-02,  7.7D-08, r^2= 3.0D+00
   Bfn.  Coefficient  Atom+Function         Bfn.  Coefficient  Atom+Function  
  ----- ------------  ---------------      ----- ------------  ---------------
    11      0.245322   1 C  pz              149     -0.238771   4 C  pz        
     8      0.192925   1 C  pz              146     -0.190882   4 C  pz        
    14      0.176417   1 C  pz              152     -0.171894   4 C  pz        
   103     -0.126472   3 C  pz              195     -0.126640   5 C  pz        
    57      0.114422   2 C  pz              241      0.114252   6 C  pz        
 
 Vector   21  Occ=1.000000D+00  E=-2.490035D-01
              MO Center= -8.2D-02,  1.3D+00,  8.4D-08, r^2= 2.3D+00
   Bfn.  Coefficient  Atom+Function         Bfn.  Coefficient  Atom+Function  
  ----- ------------  ---------------      ----- ------------  ---------------
    10      0.386187   1 C  py               13      0.337454   1 C  py        
     5      0.333905   1 C  s                 7      0.299511   1 C  py        
     4      0.280447   1 C  s                 2      0.139126   1 C  s         
   243     -0.135878   6 C  py               59     -0.133866   2 C  py        
   102      0.111705   3 C  py              194      0.111712   5 C  py        
 
 Vector   22  Occ=0.000000D+00  E=-2.552885D-02
              MO Center= -4.3D-03,  6.8D-02, -1.1D-06, r^2= 4.3D+00
   Bfn.  Coefficient  Atom+Function         Bfn.  Coefficient  Atom+Function  
  ----- ------------  ---------------      ----- ------------  ---------------
   109     -0.322880   3 C  pz              201      0.322867   5 C  pz        
    63      0.317294   2 C  pz              247     -0.317290   6 C  pz        
    60      0.227250   2 C  pz              244     -0.227248   6 C  pz        
   106     -0.224063   3 C  pz              198      0.224055   5 C  pz        
    57      0.218603   2 C  pz              241     -0.218602   6 C  pz        
 
 Vector   23  Occ=0.000000D+00  E=-1.910269D-02
              MO Center=  3.2D-03, -5.1D-02, -3.9D-06, r^2= 4.2D+00
   Bfn.  Coefficient  Atom+Function         Bfn.  Coefficient  Atom+Function  
  ----- ------------  ---------------      ----- ------------  ---------------
   155      0.436277   4 C  pz               17      0.370185   1 C  pz        
   152      0.273186   4 C  pz               11      0.259064   1 C  pz        
   149      0.251063   4 C  pz               14      0.240634   1 C  pz        
   109     -0.223806   3 C  pz              201     -0.223817   5 C  pz        
     8      0.200682   1 C  pz              146      0.198488   4 C  pz        
 
 Vector   24  Occ=0.000000D+00  E=-1.009837D-02
              MO Center=  6.0D-02, -9.6D-01, -2.3D-06, r^2= 2.0D+01
   Bfn.  Coefficient  Atom+Function         Bfn.  Coefficient  Atom+Function  
  ----- ------------  ---------------      ----- ------------  ---------------
     5      1.441639   1 C  s               279     -0.979499   7 H  s         
   371     -0.979504  11 H  s               326     -0.744633   9 H  s         
   303     -0.729323   8 H  s               349     -0.729255  10 H  s         
   302     -0.649531   8 H  s               348     -0.649515  10 H  s         
   325     -0.589365   9 H  s                51      0.569326   2 C  s         
 
 Vector   25  Occ=0.000000D+00  E= 4.401375D-03
              MO Center=  1.6D-02, -2.6D-01, -9.1D-06, r^2= 2.7D+01
   Bfn.  Coefficient  Atom+Function         Bfn.  Coefficient  Atom+Function  
  ----- ------------  ---------------      ----- ------------  ---------------
    51      2.725639   2 C  s               235     -2.725685   6 C  s         
    97      2.667632   3 C  s               189     -2.667631   5 C  s         
   303      1.996289   8 H  s               349     -1.996319  10 H  s         
    15      1.862174   1 C  px              153      1.810516   4 C  px        
   280      1.540766   7 H  s               372     -1.540797  11 H  s         
 
 Vector   26  Occ=0.000000D+00  E= 8.723020D-03
              MO Center=  4.5D-03, -7.1D-02,  5.6D-05, r^2= 2.7D+01
   Bfn.  Coefficient  Atom+Function         Bfn.  Coefficient  Atom+Function  
  ----- ------------  ---------------      ----- ------------  ---------------
   143      6.244503   4 C  s                51     -3.995225   2 C  s         
   235     -3.995524   6 C  s               326      2.930380   9 H  s         
     5      2.573180   1 C  s               280     -2.387373   7 H  s         
   372     -2.387472  11 H  s               154      1.953056   4 C  py        
   246      1.930242   6 C  py               62      1.826230   2 C  py        
 
 Vector   27  Occ=0.000000D+00  E= 2.670366D-02
              MO Center= -1.5D-02,  2.4D-01, -2.1D-05, r^2= 3.1D+01
   Bfn.  Coefficient  Atom+Function         Bfn.  Coefficient  Atom+Function  
  ----- ------------  ---------------      ----- ------------  ---------------
   280      3.922769   7 H  s               372     -3.922923  11 H  s         
    51      3.631659   2 C  s               235     -3.632017   6 C  s         
   303     -3.591564   8 H  s               349      3.591704  10 H  s         
    61      2.226525   2 C  px               97     -2.157400   3 C  s         
   189      2.157344   5 C  s               245      2.052557   6 C  px        
 
 Vector   28  Occ=0.000000D+00  E= 3.223372D-02
              MO Center=  4.0D-02, -6.3D-01, -1.2D-04, r^2= 2.9D+01
   Bfn.  Coefficient  Atom+Function         Bfn.  Coefficient  Atom+Function  
  ----- ------------  ---------------      ----- ------------  ---------------
     5      6.412035   1 C  s               326     -5.003437   9 H  s         
   303      3.729734   8 H  s               349      3.729792  10 H  s         
    97     -2.188645   3 C  s               189     -2.188482   5 C  s         
   154     -2.174243   4 C  py              199     -1.653028   5 C  px        
   245      1.640500   6 C  px               61     -1.586201   2 C  px        
 
 Vector   29  Occ=0.000000D+00  E= 4.328480D-02
              MO Center=  1.4D-02, -2.2D-01,  8.5D-06, r^2= 1.3D+01
   Bfn.  Coefficient  Atom+Function         Bfn.  Coefficient  Atom+Function  
  ----- ------------  ---------------      ----- ------------  ---------------
   155      0.598405   4 C  pz               63      0.577961   2 C  pz        
   247      0.577941   6 C  pz               17     -0.260674   1 C  pz        
    60     -0.156128   2 C  pz              244     -0.156139   6 C  pz        
   289     -0.123780   7 H  pz              381     -0.123778  11 H  pz        
   259      0.119905   6 C  d -1             77      0.110730   2 C  d  1      
 
 Vector   30  Occ=0.000000D+00  E= 5.498038D-02
              MO Center=  9.2D-03, -1.5D-01, -3.9D-05, r^2= 1.5D+01
   Bfn.  Coefficient  Atom+Function         Bfn.  Coefficient  Atom+Function  
  ----- ------------  ---------------      ----- ------------  ---------------
     5     10.710840   1 C  s               143      5.253977   4 C  s         
    51     -4.467840   2 C  s               235     -4.467885   6 C  s         
   303     -2.785538   8 H  s               349     -2.785512  10 H  s         
   326      2.034964   9 H  s               199      1.993353   5 C  px        
    97     -1.963033   3 C  s               189     -1.962979   5 C  s         
 
 Vector   31  Occ=0.000000D+00  E= 6.333097D-02
              MO Center= -4.0D-02,  6.4D-01, -1.0D-04, r^2= 2.8D+01
   Bfn.  Coefficient  Atom+Function         Bfn.  Coefficient  Atom+Function  
  ----- ------------  ---------------      ----- ------------  ---------------
     5     24.306741   1 C  s                51     -9.798450   2 C  s         
   235     -9.798409   6 C  s               143      7.570257   4 C  s         
    97     -6.518674   3 C  s               189     -6.518565   5 C  s         
   326      5.882572   9 H  s               154      4.777132   4 C  py        
   303     -4.691951   8 H  s               349     -4.692034  10 H  s         
 
 Vector   32  Occ=0.000000D+00  E= 6.575453D-02
              MO Center=  1.5D-03, -2.4D-02,  5.4D-04, r^2= 1.8D+01
   Bfn.  Coefficient  Atom+Function         Bfn.  Coefficient  Atom+Function  
  ----- ------------  ---------------      ----- ------------  ---------------
   109      0.975420   3 C  pz              201     -0.975415   5 C  pz        
    63      0.770257   2 C  pz              247     -0.770237   6 C  pz        
   169     -0.669776   4 C  d  1             31     -0.586684   1 C  d  1      
    60      0.488389   2 C  pz              106      0.489526   3 C  pz        
   198     -0.489533   5 C  pz              244     -0.488373   6 C  pz        
 
 Vector   33  Occ=0.000000D+00  E= 6.825626D-02
              MO Center= -1.2D-02,  1.9D-01, -2.7D-04, r^2= 1.8D+01
   Bfn.  Coefficient  Atom+Function         Bfn.  Coefficient  Atom+Function  
  ----- ------------  ---------------      ----- ------------  ---------------
    63      1.020035   2 C  pz              247      1.020023   6 C  pz        
   109     -0.807301   3 C  pz              201     -0.807247   5 C  pz        
   155     -0.758113   4 C  pz               14      0.623642   1 C  pz        
   152     -0.609941   4 C  pz               17      0.463997   1 C  pz        
   213     -0.453119   5 C  d -1            121     -0.409920   3 C  d -1      
 
 Vector   34  Occ=0.000000D+00  E= 7.649794D-02
              MO Center=  1.0D-02, -1.7D-01, -1.3D-04, r^2= 3.5D+01
   Bfn.  Coefficient  Atom+Function         Bfn.  Coefficient  Atom+Function  
  ----- ------------  ---------------      ----- ------------  ---------------
    51     13.836147   2 C  s               235    -13.839081   6 C  s         
    97     12.432629   3 C  s               189    -12.432633   5 C  s         
   153      7.738387   4 C  px               15      7.677796   1 C  px        
   107      4.769044   3 C  px              303      4.703336   8 H  s         
   349     -4.702908  10 H  s               199      4.466026   5 C  px        
 
 Vector   35  Occ=0.000000D+00  E= 7.790514D-02
              MO Center=  2.1D-01, -3.3D+00,  1.3D-04, r^2= 2.1D+01
   Bfn.  Coefficient  Atom+Function         Bfn.  Coefficient  Atom+Function  
  ----- ------------  ---------------      ----- ------------  ---------------
   143     18.421002   4 C  s                51    -13.472771   2 C  s         
   235    -13.469918   6 C  s               326      7.047656   9 H  s         
    62      5.668615   2 C  py              246      5.691246   6 C  py        
   200      5.415373   5 C  py              154      5.315051   4 C  py        
   108      5.054291   3 C  py              279      4.192758   7 H  s         
 
 Vector   36  Occ=0.000000D+00  E= 8.159080D-02
              MO Center= -8.9D-02,  1.4D+00,  7.0D-05, r^2= 2.8D+01
   Bfn.  Coefficient  Atom+Function         Bfn.  Coefficient  Atom+Function  
  ----- ------------  ---------------      ----- ------------  ---------------
   143     20.619491   4 C  s                51     -8.831962   2 C  s         
   235     -8.833086   6 C  s               246      5.235709   6 C  py        
    62      5.142308   2 C  py              325     -4.982315   9 H  s         
   280     -4.550154   7 H  s               372     -4.550517  11 H  s         
   326      4.469570   9 H  s               200      4.440030   5 C  py        
 
 Vector   37  Occ=0.000000D+00  E= 8.317333D-02
              MO Center=  4.5D-02, -7.1D-01, -9.8D-06, r^2= 2.2D+01
   Bfn.  Coefficient  Atom+Function         Bfn.  Coefficient  Atom+Function  
  ----- ------------  ---------------      ----- ------------  ---------------
    97      4.784763   3 C  s               189     -4.784349   5 C  s         
    51     -3.156840   2 C  s               235      3.156792   6 C  s         
   108      2.763103   3 C  py              303      2.760054   8 H  s         
   349     -2.760160  10 H  s               200     -2.651190   5 C  py        
   153      2.590732   4 C  px               96      2.048578   3 C  s         
 
 Vector   38  Occ=0.000000D+00  E= 9.544726D-02
              MO Center= -5.5D-02,  8.7D-01,  1.4D-05, r^2= 3.1D+01
   Bfn.  Coefficient  Atom+Function         Bfn.  Coefficient  Atom+Function  
  ----- ------------  ---------------      ----- ------------  ---------------
    51     17.555111   2 C  s               235    -17.555437   6 C  s         
   280      7.195855   7 H  s               372     -7.195786  11 H  s         
    97     -6.794586   3 C  s               189      6.794324   5 C  s         
   108     -6.340732   3 C  py              303     -6.183466   8 H  s         
   349      6.183481  10 H  s               302     -5.830956   8 H  s         
 
 Vector   39  Occ=0.000000D+00  E= 1.018052D-01
              MO Center= -7.1D-03,  1.1D-01, -3.3D-04, r^2= 1.9D+01
   Bfn.  Coefficient  Atom+Function         Bfn.  Coefficient  Atom+Function  
  ----- ------------  ---------------      ----- ------------  ---------------
    51     13.752874   2 C  s               235    -13.752396   6 C  s         
    97     10.930681   3 C  s               189    -10.930811   5 C  s         
    15     10.018952   1 C  px              153      9.743135   4 C  px        
   246     -6.118430   6 C  py              108     -6.042053   3 C  py        
   200      6.009989   5 C  py               62      5.931642   2 C  py        
 
 Vector   40  Occ=0.000000D+00  E= 1.064648D-01
              MO Center= -8.2D-03,  1.3D-01, -5.7D-04, r^2= 2.1D+01
   Bfn.  Coefficient  Atom+Function         Bfn.  Coefficient  Atom+Function  
  ----- ------------  ---------------      ----- ------------  ---------------
   143     18.370285   4 C  s                51     -9.927325   2 C  s         
   235     -9.927824   6 C  s                 5     -9.558803   1 C  s         
   107     -8.754974   3 C  px              199      7.970016   5 C  px        
   245     -7.066955   6 C  px              200      6.755990   5 C  py        
    61      6.507481   2 C  px              108      5.701957   3 C  py        
 
 Vector   41  Occ=0.000000D+00  E= 1.082404D-01
              MO Center= -1.0D-02,  1.6D-01, -9.3D-05, r^2= 2.2D+01
   Bfn.  Coefficient  Atom+Function         Bfn.  Coefficient  Atom+Function  
  ----- ------------  ---------------      ----- ------------  ---------------
    63      3.397709   2 C  pz              247     -3.397740   6 C  pz        
   109     -3.368164   3 C  pz              201      3.368570   5 C  pz        
    60      0.699322   2 C  pz              244     -0.699330   6 C  pz        
   106     -0.638361   3 C  pz              198      0.638442   5 C  pz        
    77     -0.374692   2 C  d  1            215      0.356107   5 C  d  1      
 
 Vector   42  Occ=0.000000D+00  E= 1.089337D-01
              MO Center=  3.0D-02, -4.7D-01,  2.0D-03, r^2= 2.1D+01
   Bfn.  Coefficient  Atom+Function         Bfn.  Coefficient  Atom+Function  
  ----- ------------  ---------------      ----- ------------  ---------------
   155      5.307274   4 C  pz              109     -3.436703   3 C  pz        
   201     -3.436402   5 C  pz               17      2.511937   1 C  pz        
   152      0.974728   4 C  pz              106     -0.599346   3 C  pz        
   198     -0.599294   5 C  pz              167      0.564575   4 C  d -1      
    14      0.505850   1 C  pz               63     -0.474331   2 C  pz        
 
 Vector   43  Occ=0.000000D+00  E= 1.095067D-01
              MO Center=  2.9D-02, -4.6D-01, -1.0D-03, r^2= 2.7D+01
   Bfn.  Coefficient  Atom+Function         Bfn.  Coefficient  Atom+Function  
  ----- ------------  ---------------      ----- ------------  ---------------
   326      7.710361   9 H  s               154      7.008987   4 C  py        
   303     -6.513074   8 H  s               349     -6.513081  10 H  s         
   143     -5.371501   4 C  s               108     -4.358993   3 C  py        
    62     -4.083744   2 C  py              200     -4.099891   5 C  py        
   246     -4.074281   6 C  py                4      3.944018   1 C  s         
 
 Vector   44  Occ=0.000000D+00  E= 1.178119D-01
              MO Center= -4.1D-02,  6.5D-01, -4.3D-04, r^2= 1.4D+01
   Bfn.  Coefficient  Atom+Function         Bfn.  Coefficient  Atom+Function  
  ----- ------------  ---------------      ----- ------------  ---------------
    17      6.872289   1 C  pz               63     -6.028325   2 C  pz        
   247     -6.028232   6 C  pz              109      5.057965   3 C  pz        
   201      5.057868   5 C  pz              155     -4.815118   4 C  pz        
    14      1.233106   1 C  pz               60     -1.021669   2 C  pz        
   244     -1.021649   6 C  pz              106      0.893408   3 C  pz        
 
 Vector   45  Occ=0.000000D+00  E= 1.264474D-01
              MO Center= -1.8D-02,  2.9D-01, -1.8D-05, r^2= 2.5D+01
   Bfn.  Coefficient  Atom+Function         Bfn.  Coefficient  Atom+Function  
  ----- ------------  ---------------      ----- ------------  ---------------
    51      7.520531   2 C  s               235     -7.520226   6 C  s         
   107      7.174014   3 C  px              199      7.108151   5 C  px        
   245     -7.017190   6 C  px               61     -6.916769   2 C  px        
    15      6.524308   1 C  px               97     -6.142181   3 C  s         
   189      6.142401   5 C  s               153     -5.893481   4 C  px        
 
 Vector   46  Occ=0.000000D+00  E= 1.274349D-01
              MO Center= -1.2D-02,  1.9D-01,  1.3D-04, r^2= 2.6D+01
   Bfn.  Coefficient  Atom+Function         Bfn.  Coefficient  Atom+Function  
  ----- ------------  ---------------      ----- ------------  ---------------
   154     -8.011006   4 C  py               16      7.415824   1 C  py        
   108      6.884705   3 C  py               62     -6.586233   2 C  py        
   200      6.566939   5 C  py              246     -6.391740   6 C  py        
   326     -4.060211   9 H  s                 5      3.612555   1 C  s         
   303      3.164614   8 H  s               349      3.164617  10 H  s         
 
 Vector   47  Occ=0.000000D+00  E= 1.609535D-01
              MO Center= -8.6D-03,  1.4D-01,  9.6D-05, r^2= 1.7D+01
   Bfn.  Coefficient  Atom+Function         Bfn.  Coefficient  Atom+Function  
  ----- ------------  ---------------      ----- ------------  ---------------
    17      8.187736   1 C  pz               63     -8.014248   2 C  pz        
   247     -8.014301   6 C  pz              155     -7.836821   4 C  pz        
   109      7.773779   3 C  pz              201      7.773835   5 C  pz        
    60     -1.194969   2 C  pz              106      1.194020   3 C  pz        
   198      1.194039   5 C  pz              244     -1.194984   6 C  pz        
 
 Vector   48  Occ=0.000000D+00  E= 1.660174D-01
              MO Center= -8.9D-02,  1.4D+00,  3.1D-04, r^2= 2.2D+01
   Bfn.  Coefficient  Atom+Function         Bfn.  Coefficient  Atom+Function  
  ----- ------------  ---------------      ----- ------------  ---------------
     5     59.221451   1 C  s                51    -25.915779   2 C  s         
   143     25.873435   4 C  s               235    -25.916938   6 C  s         
    97    -14.502573   3 C  s               189    -14.501823   5 C  s         
   154      7.457872   4 C  py              245      6.813107   6 C  px        
    61     -6.393534   2 C  px              326      6.171171   9 H  s         
 
 Vector   49  Occ=0.000000D+00  E= 1.754123D-01
              MO Center=  2.5D-02, -3.9D-01, -1.6D-04, r^2= 1.1D+01
   Bfn.  Coefficient  Atom+Function         Bfn.  Coefficient  Atom+Function  
  ----- ------------  ---------------      ----- ------------  ---------------
   335      1.102759   9 H  pz              312      1.079504   8 H  pz        
   358      1.079478  10 H  pz              289      0.973354   7 H  pz        
   381      0.973331  11 H  pz               17      0.958534   1 C  pz        
    63     -0.886358   2 C  pz              247     -0.886342   6 C  pz        
   106     -0.845626   3 C  pz              198     -0.845597   5 C  pz        
 
 Vector   50  Occ=0.000000D+00  E= 1.865004D-01
              MO Center=  3.5D-02, -5.6D-01,  9.1D-05, r^2= 1.5D+01
   Bfn.  Coefficient  Atom+Function         Bfn.  Coefficient  Atom+Function  
  ----- ------------  ---------------      ----- ------------  ---------------
     5     14.962875   1 C  s                97     -7.115684   3 C  s         
   189     -7.115317   5 C  s                51     -4.374000   2 C  s         
   235     -4.374008   6 C  s               325      4.389191   9 H  s         
    62     -4.005143   2 C  py              154      3.941379   4 C  py        
   246     -3.792201   6 C  py              302      3.224235   8 H  s         
 
 Vector   51  Occ=0.000000D+00  E= 1.979135D-01
              MO Center= -2.9D-02,  4.6D-01,  3.6D-04, r^2= 2.3D+01
   Bfn.  Coefficient  Atom+Function         Bfn.  Coefficient  Atom+Function  
  ----- ------------  ---------------      ----- ------------  ---------------
    51     44.378749   2 C  s               235    -44.378448   6 C  s         
    97     25.439626   3 C  s               189    -25.439536   5 C  s         
    15     18.551892   1 C  px              153     17.024501   4 C  px        
   302    -13.998918   8 H  s               348     13.998962  10 H  s         
   200      9.163875   5 C  py              108     -8.444572   3 C  py        
 
 Vector   52  Occ=0.000000D+00  E= 1.985192D-01
              MO Center=  4.6D-02, -7.3D-01, -5.0D-04, r^2= 2.3D+01
   Bfn.  Coefficient  Atom+Function         Bfn.  Coefficient  Atom+Function  
  ----- ------------  ---------------      ----- ------------  ---------------
   143     61.488926   4 C  s                51    -34.477167   2 C  s         
   235    -34.477755   6 C  s               325    -16.956782   9 H  s         
    62     14.718962   2 C  py              246     14.442419   6 C  py        
   200     13.755820   5 C  py              108     12.541297   3 C  py        
     5    -11.733526   1 C  s               279     11.187604   7 H  s         
 
 Vector   53  Occ=0.000000D+00  E= 2.154690D-01
              MO Center=  8.9D-02, -1.4D+00, -3.7D-05, r^2= 1.5D+01
   Bfn.  Coefficient  Atom+Function         Bfn.  Coefficient  Atom+Function  
  ----- ------------  ---------------      ----- ------------  ---------------
    97     13.639075   3 C  s               189    -13.638707   5 C  s         
    96      6.479509   3 C  s               188     -6.479661   5 C  s         
   153      6.286449   4 C  px              279     -5.104511   7 H  s         
   371      5.104479  11 H  s               303      4.763734   8 H  s         
   349     -4.763644  10 H  s               246     -4.314622   6 C  py        
 
 Vector   54  Occ=0.000000D+00  E= 2.182407D-01
              MO Center=  1.7D-02, -2.7D-01, -1.7D-04, r^2= 1.5D+01
   Bfn.  Coefficient  Atom+Function         Bfn.  Coefficient  Atom+Function  
  ----- ------------  ---------------      ----- ------------  ---------------
   143     25.779978   4 C  s                51    -17.750521   2 C  s         
   235    -17.759691   6 C  s                 5     16.031677   1 C  s         
    16     -6.429652   1 C  py              325     -6.068723   9 H  s         
    62      4.797918   2 C  py              246      4.681111   6 C  py        
   279      3.712596   7 H  s               371      3.712980  11 H  s         
 
 Vector   55  Occ=0.000000D+00  E= 2.187934D-01
              MO Center=  3.2D-03, -5.0D-02,  1.0D-03, r^2= 1.5D+01
   Bfn.  Coefficient  Atom+Function         Bfn.  Coefficient  Atom+Function  
  ----- ------------  ---------------      ----- ------------  ---------------
    51     19.433472   2 C  s               235    -19.425946   6 C  s         
   108     -8.290975   3 C  py              200      7.943495   5 C  py        
    15      7.708225   1 C  px              302     -6.836386   8 H  s         
   348      6.836361  10 H  s               153      6.390904   4 C  px        
   246     -4.318228   6 C  py               62      4.183366   2 C  py        
 
 Vector   56  Occ=0.000000D+00  E= 2.303224D-01
              MO Center= -1.9D-02,  3.0D-01,  2.3D-03, r^2= 1.8D+01
   Bfn.  Coefficient  Atom+Function         Bfn.  Coefficient  Atom+Function  
  ----- ------------  ---------------      ----- ------------  ---------------
   199      4.895082   5 C  px              107      4.621394   3 C  px        
   153     -3.595859   4 C  px               50     -3.249899   2 C  s         
   234      3.249713   6 C  s               303      3.152486   8 H  s         
   349     -3.152154  10 H  s                15     -2.706455   1 C  px        
   108      2.477302   3 C  py              302      2.019344   8 H  s         
 
 Vector   57  Occ=0.000000D+00  E= 2.312184D-01
              MO Center= -5.7D-05,  1.1D-03, -4.1D-03, r^2= 1.6D+01
   Bfn.  Coefficient  Atom+Function         Bfn.  Coefficient  Atom+Function  
  ----- ------------  ---------------      ----- ------------  ---------------
   106      2.138408   3 C  pz              198     -2.138417   5 C  pz        
    60      2.049501   2 C  pz              244     -2.049483   6 C  pz        
   312     -1.817708   8 H  pz              358      1.817726  10 H  pz        
   289     -1.721992   7 H  pz              381      1.721981  11 H  pz        
   169     -1.377634   4 C  d  1             31     -1.247042   1 C  d  1      
 
 Vector   58  Occ=0.000000D+00  E= 2.356324D-01
              MO Center= -1.3D-02,  2.1D-01,  5.0D-04, r^2= 1.6D+01
   Bfn.  Coefficient  Atom+Function         Bfn.  Coefficient  Atom+Function  
  ----- ------------  ---------------      ----- ------------  ---------------
   143     14.605003   4 C  s                51    -10.180864   2 C  s         
   235    -10.179643   6 C  s               107     -8.161441   3 C  px        
   199      7.736910   5 C  px               61      5.479581   2 C  px        
   245     -5.349775   6 C  px              303     -4.411891   8 H  s         
   349     -4.412250  10 H  s               200      3.871066   5 C  py        
 
 Vector   59  Occ=0.000000D+00  E= 2.369913D-01
              MO Center= -3.3D-03,  5.4D-02,  9.0D-04, r^2= 1.7D+01
   Bfn.  Coefficient  Atom+Function         Bfn.  Coefficient  Atom+Function  
  ----- ------------  ---------------      ----- ------------  ---------------
    97    -32.837124   3 C  s               189     32.837269   5 C  s         
    51     31.567987   2 C  s               235    -31.568685   6 C  s         
    96    -14.498737   3 C  s               188     14.498881   5 C  s         
   279     10.889258   7 H  s               371    -10.888980  11 H  s         
   302    -10.749116   8 H  s               348     10.749076  10 H  s         
 
 Vector   60  Occ=0.000000D+00  E= 2.434422D-01
              MO Center=  2.9D-03, -4.6D-02, -4.9D-04, r^2= 1.5D+01
   Bfn.  Coefficient  Atom+Function         Bfn.  Coefficient  Atom+Function  
  ----- ------------  ---------------      ----- ------------  ---------------
   152      3.403698   4 C  pz               14     -3.017146   1 C  pz        
   289      2.168734   7 H  pz              381      2.168741  11 H  pz        
   335     -2.127947   9 H  pz              261      1.999482   6 C  d  1      
    77     -1.984899   2 C  d  1             63     -1.596282   2 C  pz        
   247     -1.596245   6 C  pz              155      1.373838   4 C  pz        
 
 Vector   61  Occ=0.000000D+00  E= 2.594164D-01
              MO Center=  4.2D-02, -6.6D-01,  7.0D-05, r^2= 1.7D+01
   Bfn.  Coefficient  Atom+Function         Bfn.  Coefficient  Atom+Function  
  ----- ------------  ---------------      ----- ------------  ---------------
     5      9.496148   1 C  s               108     -6.843843   3 C  py        
   200     -6.233580   5 C  py              303     -5.334976   8 H  s         
   349     -5.335076  10 H  s               199      5.255708   5 C  px        
   154      5.033289   4 C  py              197     -4.840776   5 C  py        
   105     -4.747418   3 C  py              107     -4.431597   3 C  px        
 
 Vector   62  Occ=0.000000D+00  E= 2.620557D-01
              MO Center=  6.5D-02, -1.0D+00, -5.7D-05, r^2= 1.7D+01
   Bfn.  Coefficient  Atom+Function         Bfn.  Coefficient  Atom+Function  
  ----- ------------  ---------------      ----- ------------  ---------------
     5     18.692701   1 C  s               143     15.450138   4 C  s         
   154     15.209155   4 C  py               51    -14.581032   2 C  s         
   235    -14.581809   6 C  s               326      9.110495   9 H  s         
     4      5.906897   1 C  s                97     -4.581304   3 C  s         
   189     -4.580485   5 C  s               108     -4.524317   3 C  py        
 
 Vector   63  Occ=0.000000D+00  E= 2.677186D-01
              MO Center= -2.8D-02,  4.5D-01,  6.0D-05, r^2= 2.0D+01
   Bfn.  Coefficient  Atom+Function         Bfn.  Coefficient  Atom+Function  
  ----- ------------  ---------------      ----- ------------  ---------------
    51     20.198546   2 C  s               235    -20.198456   6 C  s         
    97    -11.749355   3 C  s               189     11.749429   5 C  s         
    61     10.994258   2 C  px              245     10.259108   6 C  px        
    96     -8.867768   3 C  s               188      8.867939   5 C  s         
   279      8.892982   7 H  s               371     -8.893039  11 H  s         
 
 Vector   64  Occ=0.000000D+00  E= 2.747297D-01
              MO Center= -2.1D-03,  3.3D-02,  6.8D-05, r^2= 1.4D+01
   Bfn.  Coefficient  Atom+Function         Bfn.  Coefficient  Atom+Function  
  ----- ------------  ---------------      ----- ------------  ---------------
   143      8.746197   4 C  s                 5      8.353216   1 C  s         
   279     -5.715031   7 H  s               371     -5.714715  11 H  s         
   154      5.647184   4 C  py              302     -4.660070   8 H  s         
   348     -4.659881  10 H  s               325     -4.304502   9 H  s         
    16     -3.932128   1 C  py              246      3.227453   6 C  py        
 
 Vector   65  Occ=0.000000D+00  E= 2.831147D-01
              MO Center= -1.1D-02,  1.8D-01, -1.2D-05, r^2= 1.6D+01
   Bfn.  Coefficient  Atom+Function         Bfn.  Coefficient  Atom+Function  
  ----- ------------  ---------------      ----- ------------  ---------------
    12      9.431411   1 C  px               97      8.986428   3 C  s         
   189     -8.986413   5 C  s                51     -8.231635   2 C  s         
   235      8.231299   6 C  s               302      8.186947   8 H  s         
   348     -8.186746  10 H  s               199      7.793762   5 C  px        
   107      7.320052   3 C  px              150      6.164997   4 C  px        
 
 Vector   66  Occ=0.000000D+00  E= 2.955049D-01
              MO Center= -2.7D-03,  4.3D-02, -2.5D-05, r^2= 1.6D+01
   Bfn.  Coefficient  Atom+Function         Bfn.  Coefficient  Atom+Function  
  ----- ------------  ---------------      ----- ------------  ---------------
    63      3.205484   2 C  pz              109     -3.191689   3 C  pz        
   201      3.191496   5 C  pz              247     -3.205367   6 C  pz        
   289     -2.274701   7 H  pz              381      2.274714  11 H  pz        
    60      2.254818   2 C  pz              244     -2.254815   6 C  pz        
   312      2.259440   8 H  pz              358     -2.259394  10 H  pz        
 
 Vector   67  Occ=0.000000D+00  E= 2.963515D-01
              MO Center= -6.0D-02,  9.6D-01,  4.1D-04, r^2= 1.4D+01
   Bfn.  Coefficient  Atom+Function         Bfn.  Coefficient  Atom+Function  
  ----- ------------  ---------------      ----- ------------  ---------------
     4     10.406656   1 C  s                59     -5.777170   2 C  py        
   243     -5.671845   6 C  py              105     -5.559150   3 C  py        
     5      5.525557   1 C  s               197     -5.176092   5 C  py        
    16      4.262010   1 C  py              279     -4.145138   7 H  s         
   371     -4.144970  11 H  s               325     -3.987575   9 H  s         
 
 Vector   68  Occ=0.000000D+00  E= 3.080119D-01
              MO Center=  1.7D-02, -2.7D-01, -4.5D-04, r^2= 1.5D+01
   Bfn.  Coefficient  Atom+Function         Bfn.  Coefficient  Atom+Function  
  ----- ------------  ---------------      ----- ------------  ---------------
   155      5.166962   4 C  pz               14      4.357787   1 C  pz        
   109     -3.737702   3 C  pz              201     -3.737763   5 C  pz        
   335     -2.708534   9 H  pz               60     -2.046569   2 C  pz        
   244     -2.046514   6 C  pz              152      1.858483   4 C  pz        
    17      1.838357   1 C  pz               29     -1.720846   1 C  d -1      
 
 Vector   69  Occ=0.000000D+00  E= 3.150744D-01
              MO Center=  3.6D-03, -5.7D-02,  1.9D-05, r^2= 9.1D+00
   Bfn.  Coefficient  Atom+Function         Bfn.  Coefficient  Atom+Function  
  ----- ------------  ---------------      ----- ------------  ---------------
   261      1.248322   6 C  d  1             77      1.126345   2 C  d  1      
   169     -1.072665   4 C  d  1             75     -1.041996   2 C  d -1      
   259      0.892415   6 C  d -1            289     -0.723523   7 H  pz        
   381      0.723517  11 H  pz               31      0.638861   1 C  d  1      
    60     -0.306786   2 C  pz              244      0.306897   6 C  pz        
 
 Vector   70  Occ=0.000000D+00  E= 3.282979D-01
              MO Center=  3.8D-02, -6.0D-01,  5.5D-05, r^2= 1.5D+01
   Bfn.  Coefficient  Atom+Function         Bfn.  Coefficient  Atom+Function  
  ----- ------------  ---------------      ----- ------------  ---------------
   142     11.564151   4 C  s                96      8.826176   3 C  s         
   188      8.826256   5 C  s               151     -7.059017   4 C  py        
     5      5.797642   1 C  s               325     -5.760453   9 H  s         
     4     -5.458336   1 C  s               334     -4.987349   9 H  py        
   243      4.265146   6 C  py              302     -4.247052   8 H  s         
 
 Vector   71  Occ=0.000000D+00  E= 3.347713D-01
              MO Center= -1.5D-03,  2.5D-02,  2.0D-04, r^2= 7.7D+00
   Bfn.  Coefficient  Atom+Function         Bfn.  Coefficient  Atom+Function  
  ----- ------------  ---------------      ----- ------------  ---------------
   289      2.028908   7 H  pz              381      2.028978  11 H  pz        
   335      1.849001   9 H  pz               14     -1.769426   1 C  pz        
   155     -1.700116   4 C  pz               63     -1.547623   2 C  pz        
   247     -1.547631   6 C  pz               77     -1.511741   2 C  d  1      
   261      1.411515   6 C  d  1            106     -1.294855   3 C  pz        
 
 Vector   72  Occ=0.000000D+00  E= 3.435939D-01
              MO Center=  2.4D-02, -3.8D-01, -5.3D-03, r^2= 1.2D+01
   Bfn.  Coefficient  Atom+Function         Bfn.  Coefficient  Atom+Function  
  ----- ------------  ---------------      ----- ------------  ---------------
   169      3.261180   4 C  d  1             31      2.731273   1 C  d  1      
   312     -2.475457   8 H  pz              358      2.475235  10 H  pz        
   123      2.154017   3 C  d  1            215      2.116910   5 C  d  1      
   106     -1.784851   3 C  pz              198      1.784885   5 C  pz        
   289     -1.434260   7 H  pz              381      1.434293  11 H  pz        
 
 Vector   73  Occ=0.000000D+00  E= 3.453694D-01
              MO Center= -3.5D-02,  5.6D-01, -2.6D-03, r^2= 1.2D+01
   Bfn.  Coefficient  Atom+Function         Bfn.  Coefficient  Atom+Function  
  ----- ------------  ---------------      ----- ------------  ---------------
   143     23.933706   4 C  s               325    -13.119272   9 H  s         
    51    -11.948198   2 C  s               235    -11.951086   6 C  s         
   279     11.723088   7 H  s               371     11.723901  11 H  s         
     5     -7.255357   1 C  s               197     -6.764453   5 C  py        
   105     -6.637495   3 C  py              243     -5.945081   6 C  py        
 
 Vector   74  Occ=0.000000D+00  E= 3.472911D-01
              MO Center=  1.1D-02, -1.7D-01,  4.9D-03, r^2= 1.2D+01
   Bfn.  Coefficient  Atom+Function         Bfn.  Coefficient  Atom+Function  
  ----- ------------  ---------------      ----- ------------  ---------------
    51     21.109050   2 C  s               235    -21.106696   6 C  s         
   302    -12.075735   8 H  s               348     12.076995  10 H  s         
    97     11.078948   3 C  s               189    -11.080316   5 C  s         
   279     -9.836470   7 H  s               371      9.833144  11 H  s         
    12     -8.164882   1 C  px              150     -7.119170   4 C  px        
 
 Vector   75  Occ=0.000000D+00  E= 3.479391D-01
              MO Center=  3.2D-02, -5.1D-01,  3.5D-03, r^2= 1.3D+01
   Bfn.  Coefficient  Atom+Function         Bfn.  Coefficient  Atom+Function  
  ----- ------------  ---------------      ----- ------------  ---------------
   155     -3.997021   4 C  pz               17      3.818709   1 C  pz        
   109      3.596066   3 C  pz              201      3.596128   5 C  pz        
    63     -3.492284   2 C  pz              247     -3.492318   6 C  pz        
   152     -2.923869   4 C  pz              213     -2.341226   5 C  d -1      
   289      2.287285   7 H  pz              381      2.287268  11 H  pz        
 
 Vector   76  Occ=0.000000D+00  E= 3.526891D-01
              MO Center=  3.4D-02, -5.4D-01, -1.9D-04, r^2= 1.4D+01
   Bfn.  Coefficient  Atom+Function         Bfn.  Coefficient  Atom+Function  
  ----- ------------  ---------------      ----- ------------  ---------------
    17      6.350016   1 C  pz               63     -5.831237   2 C  pz        
   247     -5.831266   6 C  pz              109      5.091245   3 C  pz        
   201      5.091259   5 C  pz              155     -4.799975   4 C  pz        
   335      3.977650   9 H  pz               14      3.765127   1 C  pz        
   167      3.098615   4 C  d -1             60     -2.671411   2 C  pz        
 
 Vector   77  Occ=0.000000D+00  E= 3.549052D-01
              MO Center= -1.9D-02,  3.0D-01, -6.4D-04, r^2= 1.5D+01
   Bfn.  Coefficient  Atom+Function         Bfn.  Coefficient  Atom+Function  
  ----- ------------  ---------------      ----- ------------  ---------------
     5     31.223115   1 C  s                51    -15.243997   2 C  s         
   235    -15.242776   6 C  s               143     15.046205   4 C  s         
   151    -10.837513   4 C  py              196     -7.621169   5 C  px        
    50      7.204835   2 C  s               234      7.204674   6 C  s         
    13      7.161149   1 C  py              104      7.164891   3 C  px        
 
 Vector   78  Occ=0.000000D+00  E= 3.599285D-01
              MO Center= -4.7D-02,  7.4D-01,  2.5D-04, r^2= 1.3D+01
   Bfn.  Coefficient  Atom+Function         Bfn.  Coefficient  Atom+Function  
  ----- ------------  ---------------      ----- ------------  ---------------
   289      3.412280   7 H  pz              381     -3.412326  11 H  pz        
    60      3.178926   2 C  pz              244     -3.178922   6 C  pz        
   121     -3.118194   3 C  d -1             77     -3.082863   2 C  d  1      
   259      3.048155   6 C  d -1            213      2.817070   5 C  d -1      
   106     -2.760894   3 C  pz              198      2.760774   5 C  pz        
 
 Vector   79  Occ=0.000000D+00  E= 3.685833D-01
              MO Center=  3.7D-02, -5.8D-01, -1.2D-04, r^2= 1.3D+01
   Bfn.  Coefficient  Atom+Function         Bfn.  Coefficient  Atom+Function  
  ----- ------------  ---------------      ----- ------------  ---------------
    96     10.601910   3 C  s               188     10.601461   5 C  s         
   104     -8.489515   3 C  px              196      8.472260   5 C  px        
   142     -7.722355   4 C  s                 5      7.584332   1 C  s         
   212      5.407842   5 C  d -2            258      5.352725   6 C  d -2      
   120     -5.229215   3 C  d -2            242     -5.101623   6 C  px        
 
 Vector   80  Occ=0.000000D+00  E= 3.722019D-01
              MO Center=  1.9D-02, -3.1D-01, -2.2D-04, r^2= 1.3D+01
   Bfn.  Coefficient  Atom+Function         Bfn.  Coefficient  Atom+Function  
  ----- ------------  ---------------      ----- ------------  ---------------
    97      9.606909   3 C  s               189     -9.606284   5 C  s         
    50      9.291611   2 C  s               234     -9.291282   6 C  s         
    51     -5.386574   2 C  s               235      5.385504   6 C  s         
   279     -5.392884   7 H  s               371      5.394037  11 H  s         
   357      5.244569  10 H  py              311     -5.115568   8 H  py        
 
 Vector   81  Occ=0.000000D+00  E= 3.819668D-01
              MO Center=  3.7D-02, -5.9D-01,  3.0D-06, r^2= 1.6D+01
   Bfn.  Coefficient  Atom+Function         Bfn.  Coefficient  Atom+Function  
  ----- ------------  ---------------      ----- ------------  ---------------
   166      9.047141   4 C  d -2            333      7.157178   9 H  px        
   150     -6.652925   4 C  px              216     -6.476235   5 C  d  2      
   124      6.011804   3 C  d  2            279      5.840877   7 H  s         
   371     -5.841038  11 H  s               310      5.025494   8 H  px        
   356      4.967611  10 H  px               96     -4.761537   3 C  s         
 
 Vector   82  Occ=0.000000D+00  E= 3.935127D-01
              MO Center= -2.9D-02,  4.6D-01,  2.0D-04, r^2= 1.5D+01
   Bfn.  Coefficient  Atom+Function         Bfn.  Coefficient  Atom+Function  
  ----- ------------  ---------------      ----- ------------  ---------------
    12     12.332953   1 C  px               51    -11.290585   2 C  s         
   235     11.291395   6 C  s                78     -9.089437   2 C  d  2      
   262      8.736559   6 C  d  2             15     -6.932011   1 C  px        
   216      6.773465   5 C  d  2            124     -5.911539   3 C  d  2      
   150      5.910666   4 C  px              153     -5.901156   4 C  px        
 
 Vector   83  Occ=0.000000D+00  E= 3.956240D-01
              MO Center= -5.2D-02,  8.3D-01,  1.8D-04, r^2= 1.2D+01
   Bfn.  Coefficient  Atom+Function         Bfn.  Coefficient  Atom+Function  
  ----- ------------  ---------------      ----- ------------  ---------------
   152     -7.519014   4 C  pz              106      7.373417   3 C  pz        
   198      7.373501   5 C  pz               60     -6.529763   2 C  pz        
   244     -6.529795   6 C  pz              167     -6.355463   4 C  d -1      
   215      5.132379   5 C  d  1            123     -4.725118   3 C  d  1      
    14      4.617064   1 C  pz              259      4.023410   6 C  d -1      
 
 Vector   84  Occ=0.000000D+00  E= 4.015782D-01
              MO Center= -2.9D-02,  4.7D-01, -7.5D-04, r^2= 1.5D+01
   Bfn.  Coefficient  Atom+Function         Bfn.  Coefficient  Atom+Function  
  ----- ------------  ---------------      ----- ------------  ---------------
     5     49.709149   1 C  s                51    -19.185362   2 C  s         
   235    -19.184115   6 C  s                97    -16.919988   3 C  s         
   189    -16.918014   5 C  s               143     11.002050   4 C  s         
   142    -10.516180   4 C  s                 4     -9.423364   1 C  s         
   325      7.977057   9 H  s                50     -7.626523   2 C  s         
 
 Vector   85  Occ=0.000000D+00  E= 4.049714D-01
              MO Center= -9.2D-03,  1.5D-01, -2.6D-05, r^2= 1.3D+01
   Bfn.  Coefficient  Atom+Function         Bfn.  Coefficient  Atom+Function  
  ----- ------------  ---------------      ----- ------------  ---------------
     5     36.305219   1 C  s               143     18.220802   4 C  s         
[...]
     Occ.   20 alpha a   ---  Virt.   26 alpha a   -0.98034 X
     Occ.   20 alpha a   ---  Virt.   35 alpha a    0.07115 X
     Occ.   20 alpha a   ---  Virt.   36 alpha a    0.07310 X
  ----------------------------------------------------------------------------
  Root  27         a              0.251666896 a.u.                6.8482 eV 
  <S2> =   0.7920
  ----------------------------------------------------------------------------
     Transition Moments    X -0.62349   Y -0.03932   Z  0.00022
     Transition Moments   XX  0.07484  XY -0.59176  XZ  0.00001
     Transition Moments   YY -0.07485  YZ  0.00014  ZZ -0.00000
     Dipole Oscillator Strength                    0.0654809927
     Electric Quadrupole                           0.0000000302
     Magnetic Dipole                               0.0000006782
     Total Oscillator Strength                     0.0654817011
 
     Occ.   19 alpha a   ---  Virt.   23 alpha a    0.21569 X
     Occ.   19 alpha a   ---  Virt.   29 alpha a   -0.06238 X
     Occ.   20 alpha a   ---  Virt.   22 alpha a   -0.18705 X
     Occ.   21 alpha a   ---  Virt.   25 alpha a   -0.09468 X
     Occ.   21 alpha a   ---  Virt.   27 alpha a    0.87810 X
     Occ.   21 alpha a   ---  Virt.   38 alpha a   -0.12066 X
     Occ.   13 beta  a   ---  Virt.   21 beta  a    0.06685 X
     Occ.   15 beta  a   ---  Virt.   21 beta  a    0.11586 X
     Occ.   19 beta  a   ---  Virt.   23 beta  a    0.25168 X
     Occ.   19 beta  a   ---  Virt.   29 beta  a   -0.05733 X
     Occ.   20 beta  a   ---  Virt.   22 beta  a    0.16655 X
  ----------------------------------------------------------------------------
  Root  28         a              0.252982604 a.u.                6.8840 eV 
  <S2> =   1.8924
  ----------------------------------------------------------------------------
     Transition Moments    X  0.00005   Y  0.00001   Z  0.00001
     Transition Moments   XX  0.00001  XY -0.00002  XZ  0.39250
     Transition Moments   YY  0.00007  YZ  0.02474  ZZ  0.00002
     Dipole Oscillator Strength                    0.0000000005
     Electric Quadrupole                           0.0000000133
     Magnetic Dipole                               0.0000000099
     Total Oscillator Strength                     0.0000000237
 
     Occ.   19 alpha a   ---  Virt.   26 alpha a   -0.96899 X
     Occ.   19 alpha a   ---  Virt.   35 alpha a    0.06262 X
     Occ.   19 alpha a   ---  Virt.   36 alpha a    0.06601 X
     Occ.   20 alpha a   ---  Virt.   25 alpha a   -0.21005 X
     Occ.   19 beta  a   ---  Virt.   26 beta  a    0.06625 X
  ----------------------------------------------------------------------------
  Root  29         a              0.254395058 a.u.                6.9224 eV 
  <S2> =   1.6167
  ----------------------------------------------------------------------------
     Transition Moments    X -0.00006   Y  0.00002   Z  0.00000
     Transition Moments   XX  0.00002  XY -0.00004  XZ  0.49608
     Transition Moments   YY  0.00010  YZ  0.03126  ZZ  0.00003
     Dipole Oscillator Strength                    0.0000000008
     Electric Quadrupole                           0.0000000217
     Magnetic Dipole                               0.0000000111
     Total Oscillator Strength                     0.0000000335
 
     Occ.   19 alpha a   ---  Virt.   26 alpha a   -0.07036 X
     Occ.   19 beta  a   ---  Virt.   26 beta  a   -0.98553 X
     Occ.   19 beta  a   ---  Virt.   35 beta  a    0.05818 X
     Occ.   19 beta  a   ---  Virt.   36 beta  a    0.07389 X
     Occ.   20 beta  a   ---  Virt.   25 beta  a    0.09064 X
  ----------------------------------------------------------------------------
  Root  30         a              0.254910831 a.u.                6.9365 eV 
  <S2> =   0.7719
  ----------------------------------------------------------------------------
     Transition Moments    X -1.47070   Y -0.09280   Z  0.00002
     Transition Moments   XX -0.02883  XY  0.22698  XZ -0.00004
     Transition Moments   YY  0.02855  YZ  0.00002  ZZ -0.00002
     Dipole Oscillator Strength                    0.3690355273
     Electric Quadrupole                           0.0000000046
     Magnetic Dipole                               0.0000000379
     Total Oscillator Strength                     0.3690355698
 
     Occ.   19 alpha a   ---  Virt.   23 alpha a    0.41488 X
     Occ.   19 alpha a   ---  Virt.   29 alpha a   -0.13475 X
     Occ.   20 alpha a   ---  Virt.   22 alpha a   -0.37059 X
     Occ.   20 alpha a   ---  Virt.   22 alpha a    0.05181 Y
     Occ.   21 alpha a   ---  Virt.   25 alpha a    0.08312 X
     Occ.   21 alpha a   ---  Virt.   27 alpha a   -0.44486 X
     Occ.   13 beta  a   ---  Virt.   21 beta  a    0.13000 X
     Occ.   15 beta  a   ---  Virt.   21 beta  a    0.25771 X
     Occ.   19 beta  a   ---  Virt.   23 beta  a    0.48454 X
     Occ.   19 beta  a   ---  Virt.   29 beta  a   -0.13326 X
     Occ.   20 beta  a   ---  Virt.   22 beta  a    0.33992 X
     Occ.   20 beta  a   ---  Virt.   22 beta  a   -0.05475 Y
  ----------------------------------------------------------------------------
  Root  31         a              0.255983833 a.u.                6.9657 eV 
  <S2> =   0.8014
  ----------------------------------------------------------------------------
     Transition Moments    X  0.04131   Y -0.65279   Z -0.00000
     Transition Moments   XX -0.63218  XY  0.07900  XZ  0.00002
     Transition Moments   YY -1.88139  YZ -0.00003  ZZ -0.14202
     Dipole Oscillator Strength                    0.0730132282
     Electric Quadrupole                           0.0000000724
     Magnetic Dipole                               0.0000000000
     Total Oscillator Strength                     0.0730133006
 
     Occ.   19 alpha a   ---  Virt.   22 alpha a    0.11928 X
     Occ.   20 alpha a   ---  Virt.   23 alpha a    0.10667 X
     Occ.   21 alpha a   ---  Virt.   26 alpha a    0.18551 X
     Occ.   21 alpha a   ---  Virt.   28 alpha a   -0.90553 X
     Occ.   21 alpha a   ---  Virt.   30 alpha a   -0.12834 X
     Occ.   21 alpha a   ---  Virt.   31 alpha a   -0.16325 X
     Occ.   21 alpha a   ---  Virt.   48 alpha a    0.05676 X
     Occ.   16 beta  a   ---  Virt.   21 beta  a    0.19899 X
     Occ.   19 beta  a   ---  Virt.   22 beta  a    0.11394 X
     Occ.   20 beta  a   ---  Virt.   23 beta  a   -0.09771 X
  ----------------------------------------------------------------------------
  Root  32         a              0.261314907 a.u.                7.1107 eV 
  <S2> =   0.7999
  ----------------------------------------------------------------------------
     Transition Moments    X -0.00001   Y  0.00001   Z -0.09654
     Transition Moments   XX  0.00001  XY  0.00001  XZ  0.04455
     Transition Moments   YY  0.00003  YZ -0.70719  ZZ -0.00000
     Dipole Oscillator Strength                    0.0016236251
     Electric Quadrupole                           0.0000000477
     Magnetic Dipole                               0.0000000331
     Total Oscillator Strength                     0.0016237060
 
     Occ.   21 alpha a   ---  Virt.   29 alpha a    0.97944 X
     Occ.   21 alpha a   ---  Virt.   33 alpha a    0.18063 X
  ----------------------------------------------------------------------------
  Root  33         a              0.264972333 a.u.                7.2103 eV 
  <S2> =   1.7800
  ----------------------------------------------------------------------------
     Transition Moments    X  0.00001   Y  0.00001   Z  0.00000
     Transition Moments   XX -0.00006  XY  0.00002  XZ  0.54642
     Transition Moments   YY -0.00003  YZ  0.03443  ZZ -0.00004
     Dipole Oscillator Strength                    0.0000000000
     Electric Quadrupole                           0.0000000297
     Magnetic Dipole                               0.0000000006
     Total Oscillator Strength                     0.0000000304
 
     Occ.   20 beta  a   ---  Virt.   27 beta  a   -0.99101 X
     Occ.   20 beta  a   ---  Virt.   38 beta  a    0.09646 X
  ----------------------------------------------------------------------------
  Root  34         a              0.267156477 a.u.                7.2697 eV 
  <S2> =   0.8323
  ----------------------------------------------------------------------------
     Transition Moments    X  0.07655   Y -1.21401   Z  0.00000
     Transition Moments   XX  0.09510  XY -0.03639  XZ  0.00001
     Transition Moments   YY  0.67014  YZ  0.00006  ZZ  0.06824
     Dipole Oscillator Strength                    0.2635374509
     Electric Quadrupole                           0.0000000119
     Magnetic Dipole                               0.0000000000
     Total Oscillator Strength                     0.2635374628
 
     Occ.   17 alpha a   ---  Virt.   23 alpha a   -0.09055 X
     Occ.   19 alpha a   ---  Virt.   22 alpha a    0.22570 X
     Occ.   20 alpha a   ---  Virt.   23 alpha a    0.30117 X
     Occ.   20 alpha a   ---  Virt.   29 alpha a    0.16574 X
     Occ.   21 alpha a   ---  Virt.   28 alpha a    0.31177 X
     Occ.   21 alpha a   ---  Virt.   30 alpha a   -0.37196 X
     Occ.   21 alpha a   ---  Virt.   31 alpha a    0.07293 X
     Occ.   14 beta  a   ---  Virt.   21 beta  a   -0.09314 X
     Occ.   16 beta  a   ---  Virt.   21 beta  a    0.51467 X
     Occ.   19 beta  a   ---  Virt.   22 beta  a    0.22747 X
     Occ.   20 beta  a   ---  Virt.   23 beta  a   -0.30424 X
     Occ.   20 beta  a   ---  Virt.   29 beta  a   -0.37776 X
  ----------------------------------------------------------------------------
  Root  35         a              0.271196837 a.u.                7.3796 eV 
  <S2> =   2.6999
  ----------------------------------------------------------------------------
     Transition Moments    X  0.00000   Y  0.00001   Z  0.01174
     Transition Moments   XX -0.00001  XY  0.00001  XZ -0.01148
     Transition Moments   YY -0.00001  YZ  0.18135  ZZ  0.00000
     Dipole Oscillator Strength                    0.0000249022
     Electric Quadrupole                           0.0000000035
     Magnetic Dipole                               0.0000000000
     Total Oscillator Strength                     0.0000249058
 
     Occ.   19 alpha a   ---  Virt.   27 alpha a   -0.79472 X
     Occ.   19 alpha a   ---  Virt.   38 alpha a    0.08789 X
     Occ.   20 alpha a   ---  Virt.   28 alpha a   -0.06116 X
     Occ.   19 beta  a   ---  Virt.   27 beta  a    0.57043 X
     Occ.   19 beta  a   ---  Virt.   38 beta  a   -0.06750 X
     Occ.   20 beta  a   ---  Virt.   28 beta  a   -0.10645 X
     Occ.   20 beta  a   ---  Virt.   30 beta  a   -0.06800 X
  ----------------------------------------------------------------------------
  Root  36         a              0.271684674 a.u.                7.3929 eV 
  <S2> =   2.7408
  ----------------------------------------------------------------------------
     Transition Moments    X -0.04778   Y -0.00298   Z  0.00001
     Transition Moments   XX -0.00352  XY  0.02681  XZ -0.00004
     Transition Moments   YY  0.00350  YZ  0.00007  ZZ -0.00004
     Dipole Oscillator Strength                    0.0004150524
     Electric Quadrupole                           0.0000000001
     Magnetic Dipole                               0.0000000018
     Total Oscillator Strength                     0.0004150542
 
     Occ.   17 alpha a   ---  Virt.   22 alpha a   -0.59724 X
     Occ.   17 alpha a   ---  Virt.   41 alpha a    0.05273 X
     Occ.   19 alpha a   ---  Virt.   29 alpha a   -0.16417 X
     Occ.   19 alpha a   ---  Virt.   44 alpha a    0.22782 X
     Occ.   19 alpha a   ---  Virt.   47 alpha a   -0.17442 X
     Occ.   20 alpha a   ---  Virt.   32 alpha a    0.08548 X
     Occ.   17 beta  a   ---  Virt.   22 beta  a    0.64395 X
     Occ.   17 beta  a   ---  Virt.   41 beta  a   -0.05468 X
     Occ.   19 beta  a   ---  Virt.   29 beta  a    0.10194 X
     Occ.   19 beta  a   ---  Virt.   44 beta  a   -0.20101 X
     Occ.   19 beta  a   ---  Virt.   47 beta  a    0.16694 X
     Occ.   20 beta  a   ---  Virt.   31 beta  a    0.10439 X
  ----------------------------------------------------------------------------
  Root  37         a              0.271868153 a.u.                7.3979 eV 
  <S2> =   1.7265
  ----------------------------------------------------------------------------
     Transition Moments    X  0.00000   Y -0.00000   Z -0.00000
     Transition Moments   XX -0.00006  XY  0.00002  XZ  0.55005
     Transition Moments   YY -0.00001  YZ  0.03458  ZZ -0.00003
     Dipole Oscillator Strength                    0.0000000000
     Electric Quadrupole                           0.0000000325
     Magnetic Dipole                               0.0000000012
     Total Oscillator Strength                     0.0000000338
 
     Occ.   20 alpha a   ---  Virt.   27 alpha a    0.99078 X
     Occ.   20 alpha a   ---  Virt.   38 alpha a   -0.09596 X
  ----------------------------------------------------------------------------
  Root  38         a              0.272002820 a.u.                7.4016 eV 
  <S2> =   1.2807
  ----------------------------------------------------------------------------
     Transition Moments    X  0.01984   Y -0.31487   Z  0.00000
     Transition Moments   XX  0.88809  XY  0.09976  XZ -0.00001
     Transition Moments   YY -0.68878  YZ  0.00005  ZZ  0.22002
     Dipole Oscillator Strength                    0.0180492596
     Electric Quadrupole                           0.0000000682
     Magnetic Dipole                               0.0000000000
     Total Oscillator Strength                     0.0180493278
 
     Occ.   20 alpha a   ---  Virt.   29 alpha a   -0.09894 X
     Occ.   21 alpha a   ---  Virt.   30 alpha a    0.74774 X
     Occ.   21 alpha a   ---  Virt.   31 alpha a   -0.17715 X
     Occ.   21 alpha a   ---  Virt.   35 alpha a    0.06072 X
     Occ.   21 alpha a   ---  Virt.   40 alpha a   -0.05285 X
     Occ.   16 beta  a   ---  Virt.   21 beta  a    0.10265 X
     Occ.   20 beta  a   ---  Virt.   29 beta  a   -0.60727 X
  ----------------------------------------------------------------------------
  Root  39         a              0.272055393 a.u.                7.4030 eV 
  <S2> =   1.7530
  ----------------------------------------------------------------------------
     Transition Moments    X  0.00000   Y  0.00003   Z  0.04858
     Transition Moments   XX  0.00001  XY  0.00005  XZ -0.05362
     Transition Moments   YY  0.00002  YZ  0.85150  ZZ  0.00001
     Dipole Oscillator Strength                    0.0004279835
     Electric Quadrupole                           0.0000000781
     Magnetic Dipole                               0.0000000004
     Total Oscillator Strength                     0.0004280619
 
     Occ.   19 alpha a   ---  Virt.   27 alpha a   -0.18837 X
     Occ.   20 alpha a   ---  Virt.   28 alpha a   -0.09634 X
     Occ.   19 beta  a   ---  Virt.   27 beta  a   -0.43580 X
     Occ.   20 beta  a   ---  Virt.   28 beta  a   -0.86190 X
     Occ.   20 beta  a   ---  Virt.   32 beta  a   -0.07024 X
     Occ.   20 beta  a   ---  Virt.   43 beta  a   -0.07351 X
  ----------------------------------------------------------------------------
  Root  40         a              0.272270581 a.u.                7.4089 eV 
  <S2> =   1.0401
  ----------------------------------------------------------------------------
     Transition Moments    X -0.00001   Y  0.00004   Z  0.00309
     Transition Moments   XX -0.00004  XY -0.00004  XZ  0.02890
     Transition Moments   YY  0.00013  YZ -0.45957  ZZ -0.00002
     Dipole Oscillator Strength                    0.0000017386
     Electric Quadrupole                           0.0000000228
     Magnetic Dipole                               0.0000000083
     Total Oscillator Strength                     0.0000017697
 
     Occ.   19 alpha a   ---  Virt.   27 alpha a    0.55919 X
     Occ.   20 alpha a   ---  Virt.   28 alpha a   -0.05849 X
     Occ.   19 beta  a   ---  Virt.   27 beta  a    0.67963 X
     Occ.   19 beta  a   ---  Virt.   38 beta  a   -0.06127 X
     Occ.   20 beta  a   ---  Virt.   28 beta  a   -0.45369 X
     Occ.   20 beta  a   ---  Virt.   30 beta  a   -0.05047 X
 
              Target root =      1
          Target symmetry = none
      Ground state energy =   -231.646306632801
        Excitation energy =      0.105664025522
     Excited state energy =   -231.540642607280
 
  stored tddft:energy   -231.540642607280     

 Task  times  cpu:     2963.2s     wall:     3072.6s
 
 
                                NWChem Input Module
                                -------------------
 
 
 Summary of allocated global arrays
-----------------------------------
  No active global arrays



                         GA Statistics for process    0
                         ------------------------------

       create   destroy   get      put      acc     scatter   gather  read&inc
calls: 9647     9647     1.08e+07 4.53e+06 2.72e+06 5660        0      344     
number of processes/call 1.30e+00 1.67e+00 1.93e+00 0.00e+00 0.00e+00
bytes total:             9.20e+10 1.24e+10 9.99e+10 6.26e+04 0.00e+00 2.75e+03
bytes remote:            6.63e+10 1.11e+09 9.52e+10 0.00e+00 0.00e+00 0.00e+00
Max memory consumed for GA by this process: 205086464 bytes
 
MA_summarize_allocated_blocks: starting scan ...
MA_summarize_allocated_blocks: scan completed: 0 heap blocks, 0 stack blocks
MA usage statistics:

	allocation statistics:
					      heap	     stack
					      ----	     -----
	current number of blocks	         0	         0
	maximum number of blocks	        20	        52
	current total bytes		         0	         0
	maximum total bytes		   1165984	  68276424
	maximum total K-bytes		      1166	     68277
	maximum total M-bytes		         2	        69
 
 
                                     CITATION
                                     --------
                Please cite the following reference when publishing
                           results obtained with NWChem:
 
                 M. Valiev, E.J. Bylaska, N. Govind, K. Kowalski,
              T.P. Straatsma, H.J.J. van Dam, D. Wang, J. Nieplocha,
                        E. Apra, T.L. Windus, W.A. de Jong
                 "NWChem: a comprehensive and scalable open-source
                  solution for large scale molecular simulations"
                      Comput. Phys. Commun. 181, 1477 (2010)
                           doi:10.1016/j.cpc.2010.04.018
 
                                      AUTHORS
                                      -------
          E. Apra, E. J. Bylaska, W. A. de Jong, N. Govind, K. Kowalski,
       T. P. Straatsma, M. Valiev, H. J. J. van Dam, D. Wang, T. L. Windus,
        J. Hammond, J. Autschbach, K. Bhaskaran-Nair, J. Brabec, K. Lopata,
    S. A. Fischer, S. Krishnamoorthy, M. Jacquelin, W. Ma, M. Klemm, O. Villa,
      Y. Chen, V. Anisimov, F. Aquino, S. Hirata, M. T. Hackler, V. Konjkov,
            D. Mejia-Rodriguez, T. Risthaus, M. Malagoli, A. Marenich,
   A. Otero-de-la-Roza, J. Mullin, P. Nichols, R. Peverati, J. Pittner, Y. Zhao,
        P.-D. Fan, A. Fonari, M. J. Williamson, R. J. Harrison, J. R. Rehr,
      M. Dupuis, D. Silverstein, D. M. A. Smith, J. Nieplocha, V. Tipparaju,
    M. Krishnan, B. E. Van Kuiken, A. Vazquez-Mayagoitia, L. Jensen, M. Swart,
      Q. Wu, T. Van Voorhis, A. A. Auer, M. Nooijen, L. D. Crosby, E. Brown,
      G. Cisneros, G. I. Fann, H. Fruchtl, J. Garza, K. Hirao, R. A. Kendall,
      J. A. Nichols, K. Tsemekhman, K. Wolinski, J. Anchell, D. E. Bernholdt,
      P. Borowski, T. Clark, D. Clerc, H. Dachsel, M. J. O. Deegan, K. Dyall,
    D. Elwood, E. Glendening, M. Gutowski, A. C. Hess, J. Jaffe, B. G. Johnson,
     J. Ju, R. Kobayashi, R. Kutteh, Z. Lin, R. Littlefield, X. Long, B. Meng,
      T. Nakajima, S. Niu, L. Pollack, M. Rosing, K. Glaesemann, G. Sandrone,
      M. Stave, H. Taylor, G. Thomas, J. H. van Lenthe, A. T. Wong, Z. Zhang.

 Total times  cpu:     2963.2s     wall:     3072.7s
