 argument  1 = /storage/home/j/jbb5516/normalModes/mode1016.13-p.nw
 


============================== echo of input deck ==============================
echo
start

title "None"

geometry
C    -0.08752094    1.38907619    0.00000005
C    -1.26831528    0.69190746   -0.00000002
C    -1.16850554   -0.70527771   -0.00000002
C     0.08302289   -1.31768804    0.00000004
C     1.24778778   -0.55303600   -0.00000001
C     1.17144045    0.84562858    0.00000005
H    -2.23236245    1.18285584   -0.00000010
H    -2.06929109   -1.30586415   -0.00000009
H     0.15103835   -2.39720277   -0.00000000
H     2.21683236   -1.03581066   -0.00000013
H     2.06624185    1.45369740   -0.00000010
symmetry c1
end

basis spherical
 * library "aug-cc-pvtz"
end

dft
 direct
 mult 2
 iterations 500
 xc b3lyp
end

tddft
 nroots 40
 notriplet
 algorithm 1
end
task tddft energy
================================================================================


                                         
                                         
 
 
              Northwest Computational Chemistry Package (NWChem) 6.8
              ------------------------------------------------------
 
 
                    Environmental Molecular Sciences Laboratory
                       Pacific Northwest National Laboratory
                                Richland, WA 99352
 
                              Copyright (c) 1994-2017
                       Pacific Northwest National Laboratory
                            Battelle Memorial Institute
 
             NWChem is an open-source computational chemistry package
                        distributed under the terms of the
                      Educational Community License (ECL) 2.0
             A copy of the license is included with this distribution
                              in the LICENSE.TXT file
 
                                  ACKNOWLEDGMENT
                                  --------------

            This software and its documentation were developed at the
            EMSL at Pacific Northwest National Laboratory, a multiprogram
            national laboratory, operated for the U.S. Department of Energy
            by Battelle under Contract Number DE-AC05-76RL01830. Support
            for this work was provided by the Department of Energy Office
            of Biological and Environmental Research, Office of Basic
            Energy Sciences, and the Office of Advanced Scientific Computing.


           Job information
           ---------------

    hostname        = comp-sc-0370.acib.production.int.aci.ics.psu.edu
    program         = /gpfs/group/lxj18/default/jeffprograms/nwchem-6.8.1/bin/LINUX64/nwchem
    date            = Sun Sep 20 13:54:44 2020

    compiled        = Wed_Oct_03_14:08:39_2018
    source          = /gpfs/group/lxj18/default/jeffprograms/nwchem-6.8.1
    nwchem branch   = 6.8.1
    nwchem revision = v6.8-143-gdb0d964
    ga revision     = 5.6.5
    use scalapack   = F
    input           = /storage/home/j/jbb5516/normalModes/mode1016.13-p.nw
    prefix          = mode1016.13-p.
    data base       = ./mode1016.13-p.db
    status          = startup
    nproc           =       20
    time left       =     -1s



           Memory information
           ------------------

    heap     =   13107196 doubles =    100.0 Mbytes
    stack    =   13107201 doubles =    100.0 Mbytes
    global   =   26214400 doubles =    200.0 Mbytes (distinct from heap & stack)
    total    =   52428797 doubles =    400.0 Mbytes
    verify   = yes
    hardfail = no 


           Directory information
           ---------------------
 
  0 permanent = .
  0 scratch   = .
 
 
 
 
                                NWChem Input Module
                                -------------------
 
 
                                       None
                                       ----

 Scaling coordinates for geometry "geometry" by  1.889725989
 (inverse scale =  0.529177249)

 Turning off AUTOSYM since
 SYMMETRY directive was detected!
 

          ------
          auto-z
          ------
 
 
                             Geometry "geometry" -> ""
                             -------------------------
 
 Output coordinates in angstroms (scale by  1.889725989 to convert to a.u.)
 
  No.       Tag          Charge          X              Y              Z
 ---- ---------------- ---------- -------------- -------------- --------------
    1 C                    6.0000    -0.08751887     1.38904354     0.00000005
    2 C                    6.0000    -1.26831321     0.69187481    -0.00000002
    3 C                    6.0000    -1.16850347    -0.70531036    -0.00000002
    4 C                    6.0000     0.08302496    -1.31772069     0.00000004
    5 C                    6.0000     1.24778985    -0.55306865    -0.00000001
    6 C                    6.0000     1.17144252     0.84559593     0.00000005
    7 H                    1.0000    -2.23236038     1.18282319    -0.00000010
    8 H                    1.0000    -2.06928902    -1.30589680    -0.00000009
    9 H                    1.0000     0.15104042    -2.39723542    -0.00000000
   10 H                    1.0000     2.21683443    -1.03584331    -0.00000013
   11 H                    1.0000     2.06624392     1.45366475    -0.00000010
 
      Atomic Mass 
      ----------- 
 
      C                 12.000000
      H                  1.007825
 

 Effective nuclear repulsion energy (a.u.)     194.9077059802

            Nuclear Dipole moment (a.u.) 
            ----------------------------
        X                 Y               Z
 ---------------- ---------------- ----------------
    -0.0000000000     0.0000000000     0.0000000000
 


                                Z-matrix (autoz)
                                -------- 

 Units are Angstrom for bonds and degrees for angles
 
      Type          Name      I     J     K     L     M      Value
      ----------- --------  ----- ----- ----- ----- ----- ----------
    1 Stretch                  1     2                       1.37125
    2 Stretch                  1     6                       1.37125
    3 Stretch                  2     3                       1.40075
    4 Stretch                  2     7                       1.08186
    5 Stretch                  3     4                       1.39333
    6 Stretch                  3     8                       1.08264
    7 Stretch                  4     5                       1.39333
    8 Stretch                  4     9                       1.08166
    9 Stretch                  5     6                       1.40075
   10 Stretch                  5    10                       1.08264
   11 Stretch                  6    11                       1.08186
   12 Bend                     1     2     3               116.47254
   13 Bend                     1     2     7               122.45358
   14 Bend                     1     6     5               116.47253
   15 Bend                     1     6    11               122.45355
   16 Bend                     2     1     6               126.09331
   17 Bend                     2     3     4               120.15994
   18 Bend                     2     3     8               119.60677
   19 Bend                     3     2     7               121.07387
   20 Bend                     3     4     5               120.64177
   21 Bend                     3     4     9               119.67908
   22 Bend                     4     3     8               120.23328
   23 Bend                     4     5     6               120.15991
   24 Bend                     4     5    10               120.23333
   25 Bend                     5     4     9               119.67916
   26 Bend                     5     6    11               121.07391
   27 Bend                     6     5    10               119.60677
   28 Torsion                  1     2     3     4           0.00000
   29 Torsion                  1     2     3     8        -180.00000
   30 Torsion                  1     6     5     4           0.00000
   31 Torsion                  1     6     5    10         180.00000
   32 Torsion                  2     1     6     5           0.00000
   33 Torsion                  2     1     6    11         180.00000
   34 Torsion                  2     3     4     5           0.00000
   35 Torsion                  2     3     4     9        -180.00000
   36 Torsion                  3     2     1     6           0.00000
   37 Torsion                  3     4     5     6           0.00000
   38 Torsion                  3     4     5    10        -180.00000
   39 Torsion                  4     3     2     7         180.00000
   40 Torsion                  4     5     6    11        -180.00000
   41 Torsion                  5     4     3     8         180.00000
   42 Torsion                  6     1     2     7        -180.00000
   43 Torsion                  6     5     4     9        -180.00000
   44 Torsion                  7     2     3     8           0.00000
   45 Torsion                  8     3     4     9           0.00000
   46 Torsion                  9     4     5    10           0.00000
   47 Torsion                 10     5     6    11           0.00000
 
 
            XYZ format geometry
            -------------------
    11
 geometry
 C                    -0.08751887     1.38904354     0.00000005
 C                    -1.26831321     0.69187481    -0.00000002
 C                    -1.16850347    -0.70531036    -0.00000002
 C                     0.08302496    -1.31772069     0.00000004
 C                     1.24778985    -0.55306865    -0.00000001
 C                     1.17144252     0.84559593     0.00000005
 H                    -2.23236038     1.18282319    -0.00000010
 H                    -2.06928902    -1.30589680    -0.00000009
 H                     0.15104042    -2.39723542    -0.00000000
 H                     2.21683443    -1.03584331    -0.00000013
 H                     2.06624392     1.45366475    -0.00000010
 
 ==============================================================================
                                internuclear distances
 ------------------------------------------------------------------------------
       center one      |      center two      | atomic units |  angstroms
 ------------------------------------------------------------------------------
    2 C                |   1 C                |     2.59128  |     1.37125
    3 C                |   2 C                |     2.64703  |     1.40075
    4 C                |   3 C                |     2.63301  |     1.39333
    5 C                |   4 C                |     2.63301  |     1.39333
    6 C                |   1 C                |     2.59128  |     1.37125
    6 C                |   5 C                |     2.64703  |     1.40075
    7 H                |   2 C                |     2.04442  |     1.08186
    8 H                |   3 C                |     2.04590  |     1.08264
    9 H                |   4 C                |     2.04403  |     1.08166
   10 H                |   5 C                |     2.04590  |     1.08264
   11 H                |   6 C                |     2.04442  |     1.08186
 ------------------------------------------------------------------------------
                         number of included internuclear distances:         11
 ==============================================================================



 ==============================================================================
                                 internuclear angles
 ------------------------------------------------------------------------------
        center 1       |       center 2       |       center 3       |  degrees
 ------------------------------------------------------------------------------
    2 C                |   1 C                |   6 C                |   126.09
    1 C                |   2 C                |   3 C                |   116.47
    1 C                |   2 C                |   7 H                |   122.45
    3 C                |   2 C                |   7 H                |   121.07
    2 C                |   3 C                |   4 C                |   120.16
    2 C                |   3 C                |   8 H                |   119.61
    4 C                |   3 C                |   8 H                |   120.23
    3 C                |   4 C                |   5 C                |   120.64
    3 C                |   4 C                |   9 H                |   119.68
    5 C                |   4 C                |   9 H                |   119.68
    4 C                |   5 C                |   6 C                |   120.16
    4 C                |   5 C                |  10 H                |   120.23
    6 C                |   5 C                |  10 H                |   119.61
    1 C                |   6 C                |   5 C                |   116.47
    1 C                |   6 C                |  11 H                |   122.45
    5 C                |   6 C                |  11 H                |   121.07
 ------------------------------------------------------------------------------
                            number of included internuclear angles:         16
 ==============================================================================





 Summary of "ao basis" -> "" (spherical)
 ------------------------------------------------------------------------------
       Tag                 Description            Shells   Functions and Types
 ---------------- ------------------------------  ------  ---------------------
 *                        aug-cc-pvtz                 on all atoms 


 
                                 NWChem DFT Module
                                 -----------------
 
 
                                       None
 
 
                      Basis "ao basis" -> "ao basis" (spherical)
                      -----
  C (Carbon)
  ----------
            Exponent  Coefficients 
       -------------- ---------------------------------------------------------
  1 S  8.23600000E+03  0.000531
  1 S  1.23500000E+03  0.004108
  1 S  2.80800000E+02  0.021087
  1 S  7.92700000E+01  0.081853
  1 S  2.55900000E+01  0.234817
  1 S  8.99700000E+00  0.434401
  1 S  3.31900000E+00  0.346129
  1 S  3.64300000E-01 -0.008983
 
  2 S  8.23600000E+03 -0.000113
  2 S  1.23500000E+03 -0.000878
  2 S  2.80800000E+02 -0.004540
  2 S  7.92700000E+01 -0.018133
  2 S  2.55900000E+01 -0.055760
  2 S  8.99700000E+00 -0.126895
  2 S  3.31900000E+00 -0.170352
  2 S  3.64300000E-01  0.598684
 
  3 S  9.05900000E-01  1.000000
 
  4 S  1.28500000E-01  1.000000
 
  5 S  4.40200000E-02  1.000000
 
  6 P  1.87100000E+01  0.014031
  6 P  4.13300000E+00  0.086866
  6 P  1.20000000E+00  0.290216
 
  7 P  3.82700000E-01  1.000000
 
  8 P  1.20900000E-01  1.000000
 
  9 P  3.56900000E-02  1.000000
 
 10 D  1.09700000E+00  1.000000
 
 11 D  3.18000000E-01  1.000000
 
 12 D  1.00000000E-01  1.000000
 
 13 F  7.61000000E-01  1.000000
 
 14 F  2.68000000E-01  1.000000
 
  H (Hydrogen)
  ------------
            Exponent  Coefficients 
       -------------- ---------------------------------------------------------
  1 S  3.38700000E+01  0.006068
  1 S  5.09500000E+00  0.045308
  1 S  1.15900000E+00  0.202822
 
  2 S  3.25800000E-01  1.000000
 
  3 S  1.02700000E-01  1.000000
 
  4 S  2.52600000E-02  1.000000
 
  5 P  1.40700000E+00  1.000000
 
  6 P  3.88000000E-01  1.000000
 
  7 P  1.02000000E-01  1.000000
 
  8 D  1.05700000E+00  1.000000
 
  9 D  2.47000000E-01  1.000000
 


 Summary of "ao basis" -> "ao basis" (spherical)
 ------------------------------------------------------------------------------
       Tag                 Description            Shells   Functions and Types
 ---------------- ------------------------------  ------  ---------------------
 C                        aug-cc-pvtz               14       46   5s4p3d2f
 H                        aug-cc-pvtz                9       23   4s3p2d




 Summary of "ao basis" -> "ao basis" (spherical)
 ------------------------------------------------------------------------------
       Tag                 Description            Shells   Functions and Types
 ---------------- ------------------------------  ------  ---------------------
 C                        aug-cc-pvtz               14       46   5s4p3d2f
 H                        aug-cc-pvtz                9       23   4s3p2d


  Caching 1-el integrals 
 
            General Information
            -------------------
          SCF calculation type: DFT
          Wavefunction type:  spin polarized.
          No. of atoms     :    11
          No. of electrons :    41
           Alpha electrons :    21
            Beta electrons :    20
          Charge           :     0
          Spin multiplicity:     2
          Use of symmetry is: off; symmetry adaption is: off
          Maximum number of iterations: 500
          This is a Direct SCF calculation.
          AO basis - number of functions:   391
                     number of shells:   129
          Convergence on energy requested:  1.00D-06
          Convergence on density requested:  1.00D-05
          Convergence on gradient requested:  5.00D-04
 
              XC Information
              --------------
                         B3LYP Method XC Potential
                     Hartree-Fock (Exact) Exchange  0.200          
                        Slater Exchange Functional  0.800 local    
                    Becke 1988 Exchange Functional  0.720 non-local
              Lee-Yang-Parr Correlation Functional  0.810          
                  VWN I RPA Correlation Functional  0.190 local    
 
             Grid Information
             ----------------
          Grid used for XC integration:  medium    
          Radial quadrature: Mura-Knowles        
          Angular quadrature: Lebedev. 
          Tag              B.-S. Rad. Rad. Pts. Rad. Cut. Ang. Pts.
          ---              ---------- --------- --------- ---------
          C                   0.70       49          15.0       434
          H                   0.35       45          17.0       434
          Grid pruning is: on 
          Number of quadrature shells:   519
          Spatial weights used:  Erf1
 
          Convergence Information
          -----------------------
          Convergence aids based upon iterative change in 
          total energy or number of iterations. 
          Levelshifting, if invoked, occurs when the 
          HOMO/LUMO gap drops below (HL_TOL):  1.00D-02
          DIIS, if invoked, will attempt to extrapolate 
          using up to (NFOCK): 10 stored Fock matrices.

                    Damping( 0%)  Levelshifting(0.5)       DIIS
                  --------------- ------------------- ---------------
          dE  on:    start            ASAP                start   
          dE off:    2 iters        500 iters           500 iters 

 
      Screening Tolerance Information
      -------------------------------
          Density screening/tol_rho:  1.00D-10
          AO Gaussian exp screening on grid/accAOfunc:  14
          CD Gaussian exp screening on grid/accCDfunc:  20
          XC Gaussian exp screening on grid/accXCfunc:  20
          Schwarz screening/accCoul:  1.00D-08

 
 WARNING : Found     7 linear dependencies 
 S eigenvalue threshold:     1.00000E-05
 Smallest S eigenvalue :     1.47550E-06
 Largest  S eigenvalue :     7.82068E-06
 

 !! The overlap matrix has   7 vectors deemed linearly dependent with
    eigenvalues:
 1.48D-06 2.25D-06 2.85D-06 3.57D-06 5.32D-06 5.99D-06 7.82D-06
 
 
      Superposition of Atomic Density Guess
      -------------------------------------
 
 Sum of atomic energies:        -228.52307259
 
      Non-variational initial energy
      ------------------------------

 Total energy =    -232.651304
 1-e energy   =    -691.028884
 2-e energy   =     263.469875
 HOMO         =      -0.183170
 LUMO         =      -0.022353
 
   Time after variat. SCF:      9.0
   Time prior to 1st pass:      9.0

 Grid_pts file          = ./mode1016.13-p.gridpts.00
 Record size in doubles =  12289        No. of grid_pts per rec  =   3070
 Max. records in memory =      6        Max. recs in file   = 222839064

 Grid integrated density:      40.999766159141
 Requested integration accuracy:   0.10E-05

           Memory utilization after 1st SCF pass: 
           Heap Space remaining (MW):       12.96            12961276
          Stack Space remaining (MW):       13.10            13103684

   convergence    iter        energy       DeltaE   RMS-Dens  Diis-err    time
 ---------------- ----- ----------------- --------- --------- ---------  ------
 d= 0,ls=0.0,diis     1   -231.5813826694 -4.26D+02  6.02D-02  2.09D-01    18.8
                                                     6.80D-02  1.96D-01
 d= 0,ls=0.0,diis     2   -231.6398780604 -5.85D-02  5.93D-02  1.21D-02    28.6
                                                     6.69D-02  1.23D-02
 d= 0,ls=0.0,diis     3   -231.6446193187 -4.74D-03  1.25D-03  3.39D-03    38.4
                                                     1.36D-03  3.46D-03
 d= 0,ls=0.0,diis     4   -231.6457597197 -1.14D-03  2.01D-04  1.13D-03    48.3
                                                     2.05D-04  1.06D-03
 d= 0,ls=0.0,diis     5   -231.6462784690 -5.19D-04  3.38D-05  3.95D-05    58.2
                                                     3.14D-05  4.68D-05
  Resetting Diis
 d= 0,ls=0.0,diis     6   -231.6463062434 -2.78D-05  1.16D-05  6.25D-06    68.2
                                                     1.07D-05  4.18D-06
 d= 0,ls=0.0,diis     7   -231.6463120975 -5.85D-06  5.45D-06  1.28D-06    78.1
                                                     5.57D-06  2.05D-06
 d= 0,ls=0.0,diis     8   -231.6463144240 -2.33D-06  2.29D-06  2.49D-06    88.1
                                                     1.85D-06  1.76D-06
 d= 0,ls=0.0,diis     9   -231.6463159273 -1.50D-06  2.96D-06  3.27D-07    98.0
                                                     2.82D-06  3.80D-07
 d= 0,ls=0.0,diis    10   -231.6463168997 -9.72D-07  2.59D-06  3.39D-07   108.0
                                                     2.73D-06  3.66D-07


         Total DFT energy =     -231.646316899668
      One electron energy =     -696.247755180397
           Coulomb energy =      304.097969148656
    Exchange-Corr. energy =      -34.404236848143
 Nuclear repulsion energy =      194.907705980216

 Numeric. integr. density =       40.999984211160

     Total iterative time =     99.0s


 
                    DFT Final Alpha Molecular Orbital Analysis
                    ------------------------------------------
 
 Vector    1  Occ=1.000000D+00  E=-1.020542D+01
              MO Center= -8.7D-02,  1.4D+00,  4.8D-08, r^2= 3.0D-02
   Bfn.  Coefficient  Atom+Function         Bfn.  Coefficient  Atom+Function  
  ----- ------------  ---------------      ----- ------------  ---------------
     1      0.984132   1 C  s                 3      0.058822   1 C  s         
    50     -0.038542   2 C  s               234     -0.038542   6 C  s         
   279      0.038034   7 H  s               371      0.038036  11 H  s         
   143      0.037747   4 C  s                51     -0.030600   2 C  s         
   235     -0.030601   6 C  s                47      0.025375   2 C  s         
 
 Vector    2  Occ=1.000000D+00  E=-1.019223D+01
              MO Center=  8.5D-01, -5.3D-01, -1.5D-08, r^2= 8.8D-01
   Bfn.  Coefficient  Atom+Function         Bfn.  Coefficient  Atom+Function  
  ----- ------------  ---------------      ----- ------------  ---------------
   185      0.886456   5 C  s                93      0.390692   3 C  s         
   231      0.167053   6 C  s               142     -0.091025   4 C  s         
    47      0.062455   2 C  s               139      0.055440   4 C  s         
   187      0.052916   5 C  s               348      0.049621  10 H  s         
   325      0.047988   9 H  s                50      0.037326   2 C  s         
 
 Vector    3  Occ=1.000000D+00  E=-1.019220D+01
              MO Center= -7.8D-01, -6.2D-01, -2.2D-08, r^2= 9.0D-01
   Bfn.  Coefficient  Atom+Function         Bfn.  Coefficient  Atom+Function  
  ----- ------------  ---------------      ----- ------------  ---------------
    93      0.884843   3 C  s               185     -0.387085   5 C  s         
    47      0.179225   2 C  s               231     -0.089922   6 C  s         
   234      0.062304   6 C  s               302      0.058868   8 H  s         
    95      0.052591   3 C  s               235      0.052124   6 C  s         
   371     -0.051032  11 H  s                50     -0.050327   2 C  s         
 
 Vector    4  Occ=1.000000D+00  E=-1.019066D+01
              MO Center=  1.1D+00,  7.9D-01,  4.4D-08, r^2= 2.5D-01
   Bfn.  Coefficient  Atom+Function         Bfn.  Coefficient  Atom+Function  
  ----- ------------  ---------------      ----- ------------  ---------------
   231      0.954462   6 C  s               185     -0.181760   5 C  s         
    47      0.162572   2 C  s               371      0.059156  11 H  s         
   233      0.055719   6 C  s               143      0.035913   4 C  s         
    97      0.034187   3 C  s                 4     -0.033938   1 C  s         
   142     -0.031441   4 C  s               235     -0.030838   6 C  s         
 
 Vector    5  Occ=1.000000D+00  E=-1.019064D+01
              MO Center= -1.2D+00,  6.4D-01, -2.2D-08, r^2= 2.6D-01
   Bfn.  Coefficient  Atom+Function         Bfn.  Coefficient  Atom+Function  
  ----- ------------  ---------------      ----- ------------  ---------------
    47      0.953419   2 C  s                93     -0.185613   3 C  s         
   231     -0.156418   6 C  s               279      0.057734   7 H  s         
    49      0.055382   2 C  s               189      0.044687   5 C  s         
   185      0.041777   5 C  s               188      0.039348   5 C  s         
    97     -0.037974   3 C  s                12      0.035791   1 C  px        
 
 Vector    6  Occ=1.000000D+00  E=-1.018482D+01
              MO Center=  8.3D-02, -1.3D+00,  3.9D-08, r^2= 3.5D-02
   Bfn.  Coefficient  Atom+Function         Bfn.  Coefficient  Atom+Function  
  ----- ------------  ---------------      ----- ------------  ---------------
   139      0.984242   4 C  s               141      0.057740   4 C  s         
    96     -0.045806   3 C  s               188     -0.045804   5 C  s         
   325      0.046002   9 H  s               143     -0.043543   4 C  s         
     4      0.040014   1 C  s                93     -0.039805   3 C  s         
   185     -0.039705   5 C  s               151      0.035938   4 C  py        
 
 Vector    7  Occ=1.000000D+00  E=-8.718521D-01
              MO Center= -6.3D-03,  1.0D-01,  5.0D-09, r^2= 2.0D+00
   Bfn.  Coefficient  Atom+Function         Bfn.  Coefficient  Atom+Function  
  ----- ------------  ---------------      ----- ------------  ---------------
     2      0.214342   1 C  s                48      0.202776   2 C  s         
   232      0.202795   6 C  s                94      0.195391   3 C  s         
   186      0.195410   5 C  s               140      0.187878   4 C  s         
    50      0.090058   2 C  s               234      0.090071   6 C  s         
    96      0.088378   3 C  s               188      0.088381   5 C  s         
 
 Vector    8  Occ=1.000000D+00  E=-7.624182D-01
              MO Center= -6.4D-03,  1.0D-01,  2.0D-09, r^2= 2.8D+00
   Bfn.  Coefficient  Atom+Function         Bfn.  Coefficient  Atom+Function  
  ----- ------------  ---------------      ----- ------------  ---------------
    48      0.250881   2 C  s               232     -0.250871   6 C  s         
    94      0.243628   3 C  s               186     -0.243619   5 C  s         
    50      0.145984   2 C  s               234     -0.145987   6 C  s         
   279     -0.128924   7 H  s               371      0.128922  11 H  s         
   150     -0.114861   4 C  px               97      0.110828   3 C  s         
 
 Vector    9  Occ=1.000000D+00  E=-7.534501D-01
              MO Center=  9.4D-03, -1.5D-01, -2.7D-08, r^2= 2.6D+00
   Bfn.  Coefficient  Atom+Function         Bfn.  Coefficient  Atom+Function  
  ----- ------------  ---------------      ----- ------------  ---------------
   140     -0.300922   4 C  s                 2      0.278310   1 C  s         
    94     -0.149008   3 C  s               186     -0.149019   5 C  s         
    48      0.147798   2 C  s               142     -0.148106   4 C  s         
   232      0.147807   6 C  s                96     -0.105163   3 C  s         
   188     -0.105173   5 C  s                 4      0.102718   1 C  s         
 
 Vector   10  Occ=1.000000D+00  E=-6.186230D-01
              MO Center= -2.5D-03,  4.0D-02, -1.0D-08, r^2= 3.6D+00
   Bfn.  Coefficient  Atom+Function         Bfn.  Coefficient  Atom+Function  
  ----- ------------  ---------------      ----- ------------  ---------------
    94     -0.208689   3 C  s               186      0.208696   5 C  s         
    48      0.199362   2 C  s               232     -0.199355   6 C  s         
    50      0.183344   2 C  s               234     -0.183337   6 C  s         
    96     -0.147387   3 C  s               188      0.147390   5 C  s         
     6     -0.127193   1 C  px              144      0.116562   4 C  px        
 
 Vector   11  Occ=1.000000D+00  E=-6.033831D-01
              MO Center=  5.6D-03, -8.9D-02, -3.1D-08, r^2= 3.5D+00
   Bfn.  Coefficient  Atom+Function         Bfn.  Coefficient  Atom+Function  
  ----- ------------  ---------------      ----- ------------  ---------------
   142      0.259081   4 C  s                 2      0.238828   1 C  s         
   140      0.219036   4 C  s                 4      0.198539   1 C  s         
    94     -0.138480   3 C  s               186     -0.138456   5 C  s         
    50     -0.122438   2 C  s               234     -0.122448   6 C  s         
    96     -0.119653   3 C  s               188     -0.119640   5 C  s         
 
 Vector   12  Occ=1.000000D+00  E=-5.274901D-01
              MO Center=  9.4D-03, -1.5D-01, -1.1D-08, r^2= 4.1D+00
   Bfn.  Coefficient  Atom+Function         Bfn.  Coefficient  Atom+Function  
  ----- ------------  ---------------      ----- ------------  ---------------
   148      0.159138   4 C  py              145      0.138755   4 C  py        
   324     -0.127036   9 H  s                55      0.105535   2 C  px        
   240     -0.104918   6 C  py              323     -0.100422   9 H  s         
   237     -0.096168   6 C  py              278     -0.094843   7 H  s         
   370     -0.094853  11 H  s               193     -0.094260   5 C  px        
 
 Vector   13  Occ=1.000000D+00  E=-4.641743D-01
              MO Center= -6.4D-03,  1.0D-01, -3.1D-13, r^2= 2.7D+00
   Bfn.  Coefficient  Atom+Function         Bfn.  Coefficient  Atom+Function  
  ----- ------------  ---------------      ----- ------------  ---------------
     9      0.188980   1 C  px                6      0.175260   1 C  px        
   147      0.172455   4 C  px              144      0.159020   4 C  px        
   239     -0.137237   6 C  px              194     -0.134646   5 C  py        
    56     -0.131030   2 C  py               55     -0.121654   2 C  px        
   236     -0.122132   6 C  px              191     -0.121255   5 C  py        
 
 Vector   14  Occ=1.000000D+00  E=-4.632810D-01
              MO Center=  1.0D-02, -1.6D-01, -4.3D-08, r^2= 4.8D+00
   Bfn.  Coefficient  Atom+Function         Bfn.  Coefficient  Atom+Function  
  ----- ------------  ---------------      ----- ------------  ---------------
     2      0.177102   1 C  s               301      0.136792   8 H  s         
   347      0.136823  10 H  s               140     -0.129035   4 C  s         
   193      0.128005   5 C  px              196      0.120207   5 C  px        
   101     -0.118781   3 C  px              190      0.118742   5 C  px        
    96      0.117458   3 C  s               104     -0.117192   3 C  px        
 
 Vector   15  Occ=1.000000D+00  E=-4.398761D-01
              MO Center= -1.3D-02,  2.1D-01, -2.5D-08, r^2= 4.0D+00
   Bfn.  Coefficient  Atom+Function         Bfn.  Coefficient  Atom+Function  
  ----- ------------  ---------------      ----- ------------  ---------------
   240      0.144244   6 C  py              102      0.139511   3 C  py        
   237      0.133073   6 C  py              278     -0.131505   7 H  s         
   370      0.131509  11 H  s                99      0.130328   3 C  py        
    55      0.129279   2 C  px               56     -0.129030   2 C  py        
   194     -0.127290   5 C  py               53     -0.119842   2 C  py        
 
 Vector   16  Occ=1.000000D+00  E=-3.991427D-01
              MO Center=  4.9D-02, -7.8D-01, -8.9D-09, r^2= 3.3D+00
   Bfn.  Coefficient  Atom+Function         Bfn.  Coefficient  Atom+Function  
  ----- ------------  ---------------      ----- ------------  ---------------
   148      0.233524   4 C  py              145      0.209133   4 C  py        
   324     -0.198387   9 H  s               151      0.171909   4 C  py        
   323     -0.153890   9 H  s                10      0.138572   1 C  py        
    13      0.120975   1 C  py              240      0.115308   6 C  py        
    56      0.109564   2 C  py                7      0.107826   1 C  py        
 
 Vector   17  Occ=1.000000D+00  E=-3.832968D-01
              MO Center= -7.6D-03,  1.2D-01, -6.0D-08, r^2= 2.7D+00
   Bfn.  Coefficient  Atom+Function         Bfn.  Coefficient  Atom+Function  
  ----- ------------  ---------------      ----- ------------  ---------------
    11      0.173657   1 C  pz               57      0.156510   2 C  pz        
   241      0.156524   6 C  pz              103      0.152112   3 C  pz        
   195      0.152126   5 C  pz              149      0.145735   4 C  pz        
     8      0.136969   1 C  pz               54      0.125836   2 C  pz        
   238      0.125847   6 C  pz              100      0.121612   3 C  pz        
 
 Vector   18  Occ=1.000000D+00  E=-3.660380D-01
              MO Center=  9.0D-03, -1.4D-01, -2.8D-08, r^2= 4.1D+00
   Bfn.  Coefficient  Atom+Function         Bfn.  Coefficient  Atom+Function  
  ----- ------------  ---------------      ----- ------------  ---------------
   147     -0.169487   4 C  px              101      0.165225   3 C  px        
   193      0.165122   5 C  px              144     -0.159846   4 C  px        
     9      0.149448   1 C  px               98      0.149450   3 C  px        
   190      0.149134   5 C  px                6      0.141608   1 C  px        
   196      0.135192   5 C  px              104      0.133104   3 C  px        
 
 Vector   19  Occ=1.000000D+00  E=-2.683705D-01
              MO Center=  1.1D-03, -1.7D-02,  7.8D-08, r^2= 3.0D+00
   Bfn.  Coefficient  Atom+Function         Bfn.  Coefficient  Atom+Function  
  ----- ------------  ---------------      ----- ------------  ---------------
    11      0.245074   1 C  pz              149     -0.238682   4 C  pz        
     8      0.192736   1 C  pz              146     -0.190800   4 C  pz        
    14      0.176179   1 C  pz              152     -0.171799   4 C  pz        
   103     -0.126558   3 C  pz              195     -0.126682   5 C  pz        
    57      0.114770   2 C  pz              241      0.114659   6 C  pz        
 
 Vector   20  Occ=1.000000D+00  E=-2.677003D-01
              MO Center= -4.0D-03,  6.2D-02,  2.8D-07, r^2= 3.1D+00
   Bfn.  Coefficient  Atom+Function         Bfn.  Coefficient  Atom+Function  
  ----- ------------  ---------------      ----- ------------  ---------------
   103      0.207458   3 C  pz              195     -0.207379   5 C  pz        
    57      0.203792   2 C  pz              241     -0.203852   6 C  pz        
   100      0.165286   3 C  pz              192     -0.165224   5 C  pz        
    54      0.163190   2 C  pz              238     -0.163238   6 C  pz        
    60      0.150549   2 C  pz              106      0.150006   3 C  pz        
 
 Vector   21  Occ=1.000000D+00  E=-2.484460D-01
              MO Center= -8.2D-02,  1.3D+00,  8.5D-08, r^2= 2.3D+00
   Bfn.  Coefficient  Atom+Function         Bfn.  Coefficient  Atom+Function  
  ----- ------------  ---------------      ----- ------------  ---------------
    10      0.386008   1 C  py               13      0.337702   1 C  py        
     5      0.334854   1 C  s                 7      0.299378   1 C  py        
     4      0.278315   1 C  s                 2      0.138355   1 C  s         
   243     -0.136099   6 C  py               59     -0.134042   2 C  py        
   102      0.112443   3 C  py              194      0.112437   5 C  py        
 
 Vector   22  Occ=0.000000D+00  E=-2.628280D-02
              MO Center= -4.3D-03,  6.8D-02, -8.4D-07, r^2= 4.3D+00
   Bfn.  Coefficient  Atom+Function         Bfn.  Coefficient  Atom+Function  
  ----- ------------  ---------------      ----- ------------  ---------------
   109     -0.318537   3 C  pz              201      0.318563   5 C  pz        
    63      0.313098   2 C  pz              247     -0.313114   6 C  pz        
    60      0.226721   2 C  pz              244     -0.226730   6 C  pz        
   106     -0.223488   3 C  pz              198      0.223503   5 C  pz        
    57      0.218801   2 C  pz              241     -0.218805   6 C  pz        
 
 Vector   23  Occ=0.000000D+00  E=-1.887184D-02
              MO Center=  3.2D-03, -5.1D-02, -4.1D-06, r^2= 4.3D+00
   Bfn.  Coefficient  Atom+Function         Bfn.  Coefficient  Atom+Function  
  ----- ------------  ---------------      ----- ------------  ---------------
   155      0.437619   4 C  pz               17      0.371700   1 C  pz        
   152      0.273951   4 C  pz               11      0.258823   1 C  pz        
   149      0.251015   4 C  pz               14      0.239991   1 C  pz        
   109     -0.225209   3 C  pz              201     -0.225196   5 C  pz        
     8      0.200531   1 C  pz              146      0.198430   4 C  pz        
 
 Vector   24  Occ=0.000000D+00  E=-1.009710D-02
              MO Center=  6.0D-02, -9.5D-01, -1.3D-06, r^2= 2.0D+01
   Bfn.  Coefficient  Atom+Function         Bfn.  Coefficient  Atom+Function  
  ----- ------------  ---------------      ----- ------------  ---------------
     5      1.444911   1 C  s               279     -0.975238   7 H  s         
   371     -0.975276  11 H  s               326     -0.741499   9 H  s         
   303     -0.730248   8 H  s               349     -0.730391  10 H  s         
   302     -0.650538   8 H  s               348     -0.650410  10 H  s         
   325     -0.589912   9 H  s                51      0.560874   2 C  s         
 
 Vector   25  Occ=0.000000D+00  E= 4.377623D-03
              MO Center=  1.6D-02, -2.6D-01, -6.0D-06, r^2= 2.7D+01
   Bfn.  Coefficient  Atom+Function         Bfn.  Coefficient  Atom+Function  
  ----- ------------  ---------------      ----- ------------  ---------------
    51      2.722794   2 C  s               235     -2.724172   6 C  s         
    97      2.663246   3 C  s               189     -2.663196   5 C  s         
   303      1.996631   8 H  s               349     -1.996311  10 H  s         
    15      1.862919   1 C  px              153      1.806227   4 C  px        
   280      1.536927   7 H  s               372     -1.537605  11 H  s         
 
 Vector   26  Occ=0.000000D+00  E= 8.715819D-03
              MO Center=  4.9D-03, -7.6D-02,  6.6D-05, r^2= 2.7D+01
   Bfn.  Coefficient  Atom+Function         Bfn.  Coefficient  Atom+Function  
  ----- ------------  ---------------      ----- ------------  ---------------
   143      6.215042   4 C  s                51     -3.987353   2 C  s         
   235     -3.988220   6 C  s               326      2.929708   9 H  s         
     5      2.569856   1 C  s               280     -2.384088   7 H  s         
   372     -2.384613  11 H  s               154      1.943791   4 C  py        
   246      1.931719   6 C  py               62      1.827632   2 C  py        
 
 Vector   27  Occ=0.000000D+00  E= 2.667498D-02
              MO Center= -1.5D-02,  2.5D-01, -5.3D-06, r^2= 3.1D+01
   Bfn.  Coefficient  Atom+Function         Bfn.  Coefficient  Atom+Function  
  ----- ------------  ---------------      ----- ------------  ---------------
   280      3.922905   7 H  s               372     -3.923441  11 H  s         
    51      3.619945   2 C  s               235     -3.620371   6 C  s         
   303     -3.590745   8 H  s               349      3.592093  10 H  s         
    61      2.212037   2 C  px               97     -2.159755   3 C  s         
   189      2.159477   5 C  s               199     -2.033666   5 C  px        
 
 Vector   28  Occ=0.000000D+00  E= 3.217366D-02
              MO Center=  3.9D-02, -6.2D-01, -1.1D-04, r^2= 2.9D+01
   Bfn.  Coefficient  Atom+Function         Bfn.  Coefficient  Atom+Function  
  ----- ------------  ---------------      ----- ------------  ---------------
     5      6.368235   1 C  s               326     -4.985480   9 H  s         
   303      3.720283   8 H  s               349      3.719328  10 H  s         
    97     -2.170240   3 C  s               154     -2.170281   4 C  py        
   189     -2.170872   5 C  s               199     -1.643606   5 C  px        
   245      1.629040   6 C  px               61     -1.576392   2 C  px        
 
 Vector   29  Occ=0.000000D+00  E= 4.333175D-02
              MO Center=  1.4D-02, -2.2D-01,  6.9D-06, r^2= 1.3D+01
   Bfn.  Coefficient  Atom+Function         Bfn.  Coefficient  Atom+Function  
  ----- ------------  ---------------      ----- ------------  ---------------
   155      0.600560   4 C  pz               63      0.579231   2 C  pz        
   247      0.579281   6 C  pz               17     -0.263105   1 C  pz        
    60     -0.154852   2 C  pz              244     -0.154825   6 C  pz        
   289     -0.123864   7 H  pz              381     -0.123868  11 H  pz        
   259      0.119970   6 C  d -1             77      0.110011   2 C  d  1      
 
 Vector   30  Occ=0.000000D+00  E= 5.498745D-02
              MO Center=  9.3D-03, -1.5D-01, -4.1D-05, r^2= 1.5D+01
   Bfn.  Coefficient  Atom+Function         Bfn.  Coefficient  Atom+Function  
  ----- ------------  ---------------      ----- ------------  ---------------
     5     10.775032   1 C  s               143      5.313705   4 C  s         
    51     -4.519033   2 C  s               235     -4.519308   6 C  s         
   303     -2.808549   8 H  s               349     -2.808663  10 H  s         
   326      2.075073   9 H  s               199      2.010760   5 C  px        
    97     -1.969545   3 C  s               189     -1.969693   5 C  s         
 
 Vector   31  Occ=0.000000D+00  E= 6.334707D-02
              MO Center= -4.1D-02,  6.5D-01, -1.1D-04, r^2= 2.8D+01
   Bfn.  Coefficient  Atom+Function         Bfn.  Coefficient  Atom+Function  
  ----- ------------  ---------------      ----- ------------  ---------------
     5     24.291257   1 C  s                51     -9.824004   2 C  s         
   235     -9.823632   6 C  s               143      7.604592   4 C  s         
    97     -6.495015   3 C  s               189     -6.494762   5 C  s         
   326      5.846934   9 H  s               154      4.758257   4 C  py        
   303     -4.662437   8 H  s               349     -4.662300  10 H  s         
 
 Vector   32  Occ=0.000000D+00  E= 6.575994D-02
              MO Center=  1.5D-03, -2.4D-02,  5.2D-04, r^2= 1.8D+01
   Bfn.  Coefficient  Atom+Function         Bfn.  Coefficient  Atom+Function  
  ----- ------------  ---------------      ----- ------------  ---------------
   109      0.975107   3 C  pz              201     -0.975111   5 C  pz        
    63      0.770356   2 C  pz              247     -0.770404   6 C  pz        
   169     -0.671966   4 C  d  1             31     -0.586055   1 C  d  1      
   106      0.489805   3 C  pz              198     -0.489794   5 C  pz        
    60      0.487346   2 C  pz              244     -0.487374   6 C  pz        
 
 Vector   33  Occ=0.000000D+00  E= 6.827268D-02
              MO Center= -1.2D-02,  1.9D-01, -2.9D-04, r^2= 1.8D+01
   Bfn.  Coefficient  Atom+Function         Bfn.  Coefficient  Atom+Function  
  ----- ------------  ---------------      ----- ------------  ---------------
    63      1.024180   2 C  pz              247      1.024219   6 C  pz        
   109     -0.811374   3 C  pz              201     -0.811531   5 C  pz        
   155     -0.750202   4 C  pz               14      0.626609   1 C  pz        
   152     -0.615116   4 C  pz               17      0.456711   1 C  pz        
   213     -0.448429   5 C  d -1            121     -0.404691   3 C  d -1      
 
 Vector   34  Occ=0.000000D+00  E= 7.647354D-02
              MO Center=  1.2D-02, -1.6D-01, -1.2D-04, r^2= 3.4D+01
   Bfn.  Coefficient  Atom+Function         Bfn.  Coefficient  Atom+Function  
  ----- ------------  ---------------      ----- ------------  ---------------
    51     13.839949   2 C  s               235    -13.849621   6 C  s         
    97     12.380670   3 C  s               189    -12.377282   5 C  s         
   153      7.711225   4 C  px               15      7.664479   1 C  px        
   107      4.772202   3 C  px              303      4.689643   8 H  s         
   349     -4.689738  10 H  s               199      4.470571   5 C  px        
 
 Vector   35  Occ=0.000000D+00  E= 7.794611D-02
              MO Center=  2.1D-01, -3.3D+00,  1.4D-04, r^2= 2.1D+01
   Bfn.  Coefficient  Atom+Function         Bfn.  Coefficient  Atom+Function  
  ----- ------------  ---------------      ----- ------------  ---------------
   143     18.261815   4 C  s                51    -13.416895   2 C  s         
   235    -13.417172   6 C  s               326      7.034866   9 H  s         
    62      5.664595   2 C  py              246      5.688319   6 C  py        
   200      5.400463   5 C  py              154      5.282199   4 C  py        
   108      5.040856   3 C  py              279      4.171249   7 H  s         
 
 Vector   36  Occ=0.000000D+00  E= 8.155201D-02
              MO Center= -9.0D-02,  1.4D+00,  8.7D-05, r^2= 2.8D+01
   Bfn.  Coefficient  Atom+Function         Bfn.  Coefficient  Atom+Function  
  ----- ------------  ---------------      ----- ------------  ---------------
   143     20.591524   4 C  s                51     -8.861210   2 C  s         
   235     -8.857299   6 C  s               246      5.240127   6 C  py        
    62      5.143458   2 C  py              325     -4.951611   9 H  s         
   280     -4.548251   7 H  s               372     -4.548337  11 H  s         
   200      4.460349   5 C  py              326      4.474741   9 H  s         
 
 Vector   37  Occ=0.000000D+00  E= 8.313258D-02
              MO Center=  4.6D-02, -7.3D-01, -1.0D-05, r^2= 2.2D+01
   Bfn.  Coefficient  Atom+Function         Bfn.  Coefficient  Atom+Function  
  ----- ------------  ---------------      ----- ------------  ---------------
    97      4.943467   3 C  s               189     -4.940016   5 C  s         
    51     -3.130061   2 C  s               235      3.120153   6 C  s         
   303      2.813243   8 H  s               349     -2.813758  10 H  s         
   108      2.796809   3 C  py              200     -2.676348   5 C  py        
   153      2.602438   4 C  px               96      2.081499   3 C  s         
 
 Vector   38  Occ=0.000000D+00  E= 9.538750D-02
              MO Center= -5.6D-02,  8.8D-01,  8.8D-06, r^2= 3.1D+01
   Bfn.  Coefficient  Atom+Function         Bfn.  Coefficient  Atom+Function  
  ----- ------------  ---------------      ----- ------------  ---------------
    51     17.512780   2 C  s               235    -17.507863   6 C  s         
   280      7.203466   7 H  s               372     -7.203027  11 H  s         
    97     -6.828509   3 C  s               189      6.826252   5 C  s         
   108     -6.414842   3 C  py              303     -6.179796   8 H  s         
   349      6.181977  10 H  s               200      5.872652   5 C  py        
 
 Vector   39  Occ=0.000000D+00  E= 1.017820D-01
              MO Center= -7.0D-03,  1.1D-01, -3.3D-04, r^2= 1.9D+01
   Bfn.  Coefficient  Atom+Function         Bfn.  Coefficient  Atom+Function  
  ----- ------------  ---------------      ----- ------------  ---------------
    51     13.790776   2 C  s               235    -13.792465   6 C  s         
    97     10.839577   3 C  s               189    -10.838639   5 C  s         
    15      9.994560   1 C  px              153      9.727573   4 C  px        
   108     -6.049635   3 C  py              246     -6.062285   6 C  py        
   200      6.017548   5 C  py               62      5.878478   2 C  py        
 
 Vector   40  Occ=0.000000D+00  E= 1.064472D-01
              MO Center= -8.1D-03,  1.2D-01, -5.8D-04, r^2= 2.1D+01
   Bfn.  Coefficient  Atom+Function         Bfn.  Coefficient  Atom+Function  
  ----- ------------  ---------------      ----- ------------  ---------------
   143     18.165695   4 C  s                51     -9.888787   2 C  s         
   235     -9.891293   6 C  s                 5     -9.392609   1 C  s         
   107     -8.761804   3 C  px              199      7.988483   5 C  px        
   245     -7.022176   6 C  px              200      6.662247   5 C  py        
    61      6.476422   2 C  px              108      5.606220   3 C  py        
 
 Vector   41  Occ=0.000000D+00  E= 1.081742D-01
              MO Center= -1.0D-02,  1.6D-01, -9.3D-05, r^2= 2.2D+01
   Bfn.  Coefficient  Atom+Function         Bfn.  Coefficient  Atom+Function  
  ----- ------------  ---------------      ----- ------------  ---------------
    63      3.386063   2 C  pz              247     -3.385846   6 C  pz        
   109     -3.356909   3 C  pz              201      3.357236   5 C  pz        
    60      0.693810   2 C  pz              244     -0.693747   6 C  pz        
   106     -0.633368   3 C  pz              198      0.633408   5 C  pz        
    77     -0.379194   2 C  d  1            215      0.359885   5 C  d  1      
 
 Vector   42  Occ=0.000000D+00  E= 1.089328D-01
              MO Center=  3.0D-02, -4.8D-01,  2.3D-03, r^2= 2.1D+01
   Bfn.  Coefficient  Atom+Function         Bfn.  Coefficient  Atom+Function  
  ----- ------------  ---------------      ----- ------------  ---------------
   155      5.327208   4 C  pz              109     -3.454966   3 C  pz        
   201     -3.454580   5 C  pz               17      2.479272   1 C  pz        
   152      0.982907   4 C  pz              106     -0.604825   3 C  pz        
   198     -0.604740   5 C  pz              167      0.569648   4 C  d -1      
    14      0.495899   1 C  pz               63     -0.450568   2 C  pz        
 
 Vector   43  Occ=0.000000D+00  E= 1.094119D-01
              MO Center=  2.8D-02, -4.5D-01, -1.3D-03, r^2= 2.7D+01
   Bfn.  Coefficient  Atom+Function         Bfn.  Coefficient  Atom+Function  
  ----- ------------  ---------------      ----- ------------  ---------------
   326      7.613163   9 H  s               154      7.078639   4 C  py        
   303     -6.430286   8 H  s               349     -6.429002  10 H  s         
   143     -5.842145   4 C  s               108     -4.505444   3 C  py        
   200     -4.272709   5 C  py               62     -4.216628   2 C  py        
   246     -4.184274   6 C  py                4      3.899971   1 C  s         
 
 Vector   44  Occ=0.000000D+00  E= 1.175265D-01
              MO Center= -4.2D-02,  6.6D-01, -4.2D-04, r^2= 1.4D+01
   Bfn.  Coefficient  Atom+Function         Bfn.  Coefficient  Atom+Function  
  ----- ------------  ---------------      ----- ------------  ---------------
    17      6.831307   1 C  pz               63     -5.963478   2 C  pz        
   247     -5.963679   6 C  pz              109      4.972680   3 C  pz        
   201      4.972889   5 C  pz              155     -4.732590   4 C  pz        
    14      1.229284   1 C  pz               60     -1.012162   2 C  pz        
   244     -1.012205   6 C  pz              106      0.880329   3 C  pz        
 
 Vector   45  Occ=0.000000D+00  E= 1.263657D-01
              MO Center= -1.8D-02,  2.9D-01, -2.7D-05, r^2= 2.5D+01
   Bfn.  Coefficient  Atom+Function         Bfn.  Coefficient  Atom+Function  
  ----- ------------  ---------------      ----- ------------  ---------------
    51      7.538718   2 C  s               235     -7.537260   6 C  s         
   107      7.186357   3 C  px              199      7.111604   5 C  px        
   245     -7.027431   6 C  px               61     -6.917722   2 C  px        
    15      6.432104   1 C  px               97     -6.140637   3 C  s         
   189      6.141670   5 C  s               153     -5.794602   4 C  px        
 
 Vector   46  Occ=0.000000D+00  E= 1.274005D-01
              MO Center= -1.2D-02,  1.9D-01,  1.3D-04, r^2= 2.6D+01
   Bfn.  Coefficient  Atom+Function         Bfn.  Coefficient  Atom+Function  
  ----- ------------  ---------------      ----- ------------  ---------------
   154     -7.995491   4 C  py               16      7.422975   1 C  py        
   108      6.859533   3 C  py               62     -6.568268   2 C  py        
   200      6.541522   5 C  py              246     -6.374038   6 C  py        
   326     -4.037547   9 H  s                 5      3.558922   1 C  s         
   303      3.157087   8 H  s               349      3.155539  10 H  s         
 
 Vector   47  Occ=0.000000D+00  E= 1.606237D-01
              MO Center= -8.8D-03,  1.4D-01,  1.0D-04, r^2= 1.7D+01
   Bfn.  Coefficient  Atom+Function         Bfn.  Coefficient  Atom+Function  
  ----- ------------  ---------------      ----- ------------  ---------------
    17      8.214325   1 C  pz               63     -8.018803   2 C  pz        
   247     -8.018664   6 C  pz              155     -7.858367   4 C  pz        
   109      7.777702   3 C  pz              201      7.777557   5 C  pz        
    60     -1.192894   2 C  pz              106      1.194805   3 C  pz        
   198      1.194771   5 C  pz              244     -1.192866   6 C  pz        
 
 Vector   48  Occ=0.000000D+00  E= 1.659930D-01
              MO Center= -8.9D-02,  1.4D+00,  3.1D-04, r^2= 2.2D+01
   Bfn.  Coefficient  Atom+Function         Bfn.  Coefficient  Atom+Function  
  ----- ------------  ---------------      ----- ------------  ---------------
     5     59.090493   1 C  s                51    -25.947362   2 C  s         
   143     25.969076   4 C  s               235    -25.949650   6 C  s         
    97    -14.390470   3 C  s               189    -14.390183   5 C  s         
   154      7.424079   4 C  py              245      6.805199   6 C  px        
    61     -6.391380   2 C  px              326      6.151267   9 H  s         
 
 Vector   49  Occ=0.000000D+00  E= 1.753999D-01
              MO Center=  2.5D-02, -3.9D-01, -1.7D-04, r^2= 1.1D+01
   Bfn.  Coefficient  Atom+Function         Bfn.  Coefficient  Atom+Function  
  ----- ------------  ---------------      ----- ------------  ---------------
   335      1.102936   9 H  pz              312      1.078400   8 H  pz        
   358      1.078460  10 H  pz               17      0.983243   1 C  pz        
   289      0.973103   7 H  pz              381      0.973153  11 H  pz        
    63     -0.908303   2 C  pz              247     -0.908338   6 C  pz        
   106     -0.838926   3 C  pz              198     -0.838991   5 C  pz        
 
 Vector   50  Occ=0.000000D+00  E= 1.864201D-01
              MO Center=  3.5D-02, -5.5D-01,  9.7D-05, r^2= 1.5D+01
   Bfn.  Coefficient  Atom+Function         Bfn.  Coefficient  Atom+Function  
  ----- ------------  ---------------      ----- ------------  ---------------
     5     15.492604   1 C  s                97     -7.261650   3 C  s         
   189     -7.261351   5 C  s                51     -4.531489   2 C  s         
   235     -4.531129   6 C  s               325      4.386755   9 H  s         
    62     -4.019377   2 C  py              154      3.986412   4 C  py        
   246     -3.798677   6 C  py               50     -3.237175   2 C  s         
 
 Vector   51  Occ=0.000000D+00  E= 1.979657D-01
              MO Center= -2.8D-02,  4.7D-01,  3.5D-04, r^2= 2.3D+01
   Bfn.  Coefficient  Atom+Function         Bfn.  Coefficient  Atom+Function  
  ----- ------------  ---------------      ----- ------------  ---------------
    51     44.417173   2 C  s               235    -44.490251   6 C  s         
    97     25.206746   3 C  s               189    -25.186173   5 C  s         
    15     18.446388   1 C  px              153     17.062925   4 C  px        
   302    -13.990634   8 H  s               348     13.984305  10 H  s         
   200      9.264030   5 C  py              108     -8.515952   3 C  py        
 
 Vector   52  Occ=0.000000D+00  E= 1.983850D-01
              MO Center=  4.4D-02, -7.3D-01, -5.0D-04, r^2= 2.3D+01
   Bfn.  Coefficient  Atom+Function         Bfn.  Coefficient  Atom+Function  
  ----- ------------  ---------------      ----- ------------  ---------------
   143     61.134275   4 C  s                51    -34.425348   2 C  s         
   235    -34.332042   6 C  s               325    -16.839810   9 H  s         
    62     14.714818   2 C  py              246     14.447461   6 C  py        
   200     13.739847   5 C  py              108     12.550174   3 C  py        
     5    -11.713509   1 C  s               279     11.164459   7 H  s         
 
 Vector   53  Occ=0.000000D+00  E= 2.152005D-01
              MO Center=  8.5D-02, -1.4D+00, -2.6D-05, r^2= 1.5D+01
   Bfn.  Coefficient  Atom+Function         Bfn.  Coefficient  Atom+Function  
  ----- ------------  ---------------      ----- ------------  ---------------
    97     13.962093   3 C  s               189    -13.962047   5 C  s         
    96      6.553721   3 C  s               153      6.532574   4 C  px        
   188     -6.554037   5 C  s               279     -5.177090   7 H  s         
   371      5.177647  11 H  s               303      4.705402   8 H  s         
   349     -4.705955  10 H  s               246     -4.598611   6 C  py        
 
 Vector   54  Occ=0.000000D+00  E= 2.180992D-01
              MO Center=  1.8D-02, -2.9D-01, -1.8D-04, r^2= 1.5D+01
   Bfn.  Coefficient  Atom+Function         Bfn.  Coefficient  Atom+Function  
  ----- ------------  ---------------      ----- ------------  ---------------
   143     25.703687   4 C  s                51    -17.715443   2 C  s         
   235    -17.707665   6 C  s                 5     15.920726   1 C  s         
    16     -6.432443   1 C  py              325     -6.041805   9 H  s         
    62      4.844774   2 C  py              246      4.736624   6 C  py        
   279      3.734833   7 H  s               371      3.734318  11 H  s         
 
 Vector   55  Occ=0.000000D+00  E= 2.190355D-01
              MO Center=  7.8D-03, -1.2D-01,  1.0D-03, r^2= 1.5D+01
   Bfn.  Coefficient  Atom+Function         Bfn.  Coefficient  Atom+Function  
  ----- ------------  ---------------      ----- ------------  ---------------
    51     19.716120   2 C  s               235    -19.722756   6 C  s         
   108     -8.502857   3 C  py              200      8.146772   5 C  py        
    15      7.427552   1 C  px              302     -6.909937   8 H  s         
   348      6.909873  10 H  s               153      6.174452   4 C  px        
   246     -3.939100   6 C  py               62      3.815532   2 C  py        
 
 Vector   56  Occ=0.000000D+00  E= 2.300612D-01
              MO Center= -1.7D-02,  2.6D-01,  1.8D-03, r^2= 1.8D+01
   Bfn.  Coefficient  Atom+Function         Bfn.  Coefficient  Atom+Function  
  ----- ------------  ---------------      ----- ------------  ---------------
   199      4.899706   5 C  px              107      4.634129   3 C  px        
   153     -3.644027   4 C  px               50     -3.294181   2 C  s         
   234      3.294756   6 C  s               303      3.112578   8 H  s         
   349     -3.113446  10 H  s                15     -2.665954   1 C  px        
   108      2.395479   3 C  py               59      1.869514   2 C  py        
 
 Vector   57  Occ=0.000000D+00  E= 2.312096D-01
              MO Center= -1.1D-04,  1.7D-03, -3.6D-03, r^2= 1.6D+01
   Bfn.  Coefficient  Atom+Function         Bfn.  Coefficient  Atom+Function  
  ----- ------------  ---------------      ----- ------------  ---------------
   106      2.139111   3 C  pz              198     -2.139106   5 C  pz        
    60      2.044129   2 C  pz              244     -2.044173   6 C  pz        
   312     -1.818360   8 H  pz              358      1.818293  10 H  pz        
   289     -1.720302   7 H  pz              381      1.720369  11 H  pz        
   169     -1.371566   4 C  d  1             31     -1.249391   1 C  d  1      
 
 Vector   58  Occ=0.000000D+00  E= 2.352102D-01
              MO Center= -1.4D-02,  2.2D-01,  4.7D-04, r^2= 1.6D+01
   Bfn.  Coefficient  Atom+Function         Bfn.  Coefficient  Atom+Function  
  ----- ------------  ---------------      ----- ------------  ---------------
   143     15.118202   4 C  s                51    -10.596939   2 C  s         
   235    -10.612139   6 C  s               107     -8.194028   3 C  px        
   199      7.761853   5 C  px               61      5.410689   2 C  px        
   245     -5.294304   6 C  px              303     -4.406107   8 H  s         
   349     -4.403704  10 H  s                 5      4.211300   1 C  s         
 
 Vector   59  Occ=0.000000D+00  E= 2.365731D-01
              MO Center= -5.6D-03,  8.6D-02,  9.7D-04, r^2= 1.7D+01
   Bfn.  Coefficient  Atom+Function         Bfn.  Coefficient  Atom+Function  
  ----- ------------  ---------------      ----- ------------  ---------------
    97    -32.843618   3 C  s               189     32.842969   5 C  s         
    51     31.348049   2 C  s               235    -31.341779   6 C  s         
    96    -14.292032   3 C  s               188     14.293712   5 C  s         
   279     10.726843   7 H  s               371    -10.728229  11 H  s         
   302    -10.619072   8 H  s               348     10.619356  10 H  s         
 
 Vector   60  Occ=0.000000D+00  E= 2.434557D-01
              MO Center=  2.8D-03, -4.4D-02, -4.6D-04, r^2= 1.5D+01
   Bfn.  Coefficient  Atom+Function         Bfn.  Coefficient  Atom+Function  
  ----- ------------  ---------------      ----- ------------  ---------------
   152      3.405953   4 C  pz               14     -3.013344   1 C  pz        
   289      2.170961   7 H  pz              381      2.170948  11 H  pz        
   335     -2.126178   9 H  pz              261      1.996796   6 C  d  1      
    77     -1.982563   2 C  d  1             63     -1.599176   2 C  pz        
   247     -1.599261   6 C  pz              155      1.365410   4 C  pz        
 
 Vector   61  Occ=0.000000D+00  E= 2.592770D-01
              MO Center=  3.7D-02, -5.8D-01,  6.5D-05, r^2= 1.7D+01
   Bfn.  Coefficient  Atom+Function         Bfn.  Coefficient  Atom+Function  
  ----- ------------  ---------------      ----- ------------  ---------------
     5      8.522370   1 C  s               108     -6.569004   3 C  py        
   200     -5.986570   5 C  py              303     -5.131245   8 H  s         
   349     -5.132114  10 H  s               143     -5.008257   4 C  s         
   199      5.026947   5 C  px              197     -4.837186   5 C  py        
   105     -4.731649   3 C  py              107     -4.233880   3 C  px        
 
 Vector   62  Occ=0.000000D+00  E= 2.618951D-01
              MO Center=  7.0D-02, -1.1D+00, -5.1D-05, r^2= 1.7D+01
   Bfn.  Coefficient  Atom+Function         Bfn.  Coefficient  Atom+Function  
  ----- ------------  ---------------      ----- ------------  ---------------
     5     19.085265   1 C  s               154     15.451841   4 C  py        
   143     15.134903   4 C  s                51    -14.559400   2 C  s         
   235    -14.558768   6 C  s               326      9.218645   9 H  s         
     4      5.997363   1 C  s               108     -4.862423   3 C  py        
    97     -4.685050   3 C  s               189     -4.686145   5 C  s         
 
 Vector   63  Occ=0.000000D+00  E= 2.676241D-01
              MO Center= -2.8D-02,  4.4D-01,  5.9D-05, r^2= 2.0D+01
   Bfn.  Coefficient  Atom+Function         Bfn.  Coefficient  Atom+Function  
  ----- ------------  ---------------      ----- ------------  ---------------
    51     20.186292   2 C  s               235    -20.186697   6 C  s         
    97    -11.854864   3 C  s               189     11.853813   5 C  s         
    61     10.981790   2 C  px              245     10.228072   6 C  px        
    96     -8.764055   3 C  s               188      8.764318   5 C  s         
   279      8.800042   7 H  s               371     -8.799458  11 H  s         
 
 Vector   64  Occ=0.000000D+00  E= 2.748247D-01
              MO Center= -1.7D-03,  2.7D-02,  6.7D-05, r^2= 1.4D+01
   Bfn.  Coefficient  Atom+Function         Bfn.  Coefficient  Atom+Function  
  ----- ------------  ---------------      ----- ------------  ---------------
   143      8.827591   4 C  s                 5      8.581749   1 C  s         
   154      5.679262   4 C  py              279     -5.617674   7 H  s         
   371     -5.617414  11 H  s               302     -4.660946   8 H  s         
   348     -4.661759  10 H  s               325     -4.380112   9 H  s         
    16     -4.021390   1 C  py              246      3.234942   6 C  py        
 
 Vector   65  Occ=0.000000D+00  E= 2.827789D-01
              MO Center= -1.1D-02,  1.8D-01, -1.8D-05, r^2= 1.6D+01
   Bfn.  Coefficient  Atom+Function         Bfn.  Coefficient  Atom+Function  
  ----- ------------  ---------------      ----- ------------  ---------------
    12      9.462615   1 C  px               97      8.921216   3 C  s         
   189     -8.921000   5 C  s                51     -8.036026   2 C  s         
   235      8.036413   6 C  s               302      8.075449   8 H  s         
   348     -8.075843  10 H  s               199      7.656188   5 C  px        
   107      7.183067   3 C  px              150      6.148714   4 C  px        
 
 Vector   66  Occ=0.000000D+00  E= 2.953924D-01
              MO Center= -3.5D-03,  5.7D-02, -2.2D-05, r^2= 1.6D+01
   Bfn.  Coefficient  Atom+Function         Bfn.  Coefficient  Atom+Function  
  ----- ------------  ---------------      ----- ------------  ---------------
    63      3.198089   2 C  pz              109     -3.184043   3 C  pz        
   201      3.184578   5 C  pz              247     -3.198354   6 C  pz        
   289     -2.280222   7 H  pz              381      2.280194  11 H  pz        
    60      2.253959   2 C  pz              244     -2.253911   6 C  pz        
   312      2.263640   8 H  pz              358     -2.263796  10 H  pz        
 
 Vector   67  Occ=0.000000D+00  E= 2.962127D-01
              MO Center= -6.0D-02,  9.6D-01,  4.1D-04, r^2= 1.4D+01
   Bfn.  Coefficient  Atom+Function         Bfn.  Coefficient  Atom+Function  
  ----- ------------  ---------------      ----- ------------  ---------------
     4     10.405849   1 C  s                59     -5.720306   2 C  py        
   243     -5.612155   6 C  py                5      5.534112   1 C  s         
   105     -5.515065   3 C  py              197     -5.126115   5 C  py        
    16      4.273983   1 C  py              279     -4.194611   7 H  s         
   371     -4.194739  11 H  s                13      3.914428   1 C  py        
 
 Vector   68  Occ=0.000000D+00  E= 3.079881D-01
              MO Center=  1.7D-02, -2.7D-01, -4.5D-04, r^2= 1.5D+01
   Bfn.  Coefficient  Atom+Function         Bfn.  Coefficient  Atom+Function  
  ----- ------------  ---------------      ----- ------------  ---------------
   155      5.180090   4 C  pz               14      4.349781   1 C  pz        
   109     -3.745671   3 C  pz              201     -3.745439   5 C  pz        
   335     -2.710372   9 H  pz               60     -2.041471   2 C  pz        
   244     -2.041630   6 C  pz              152      1.849546   4 C  pz        
    17      1.826023   1 C  pz               29     -1.715272   1 C  d -1      
 
 Vector   69  Occ=0.000000D+00  E= 3.148565D-01
              MO Center=  5.4D-03, -8.6D-02,  1.8D-05, r^2= 9.1D+00
   Bfn.  Coefficient  Atom+Function         Bfn.  Coefficient  Atom+Function  
  ----- ------------  ---------------      ----- ------------  ---------------
   261      1.263011   6 C  d  1             77      1.144888   2 C  d  1      
   169     -1.093638   4 C  d  1             75     -1.014978   2 C  d -1      
   259      0.863188   6 C  d -1            289     -0.722462   7 H  pz        
   381      0.722461  11 H  pz               31      0.642613   1 C  d  1      
    60     -0.357249   2 C  pz              244      0.357013   6 C  pz        
 
 Vector   70  Occ=0.000000D+00  E= 3.283694D-01
              MO Center=  3.9D-02, -6.2D-01,  8.6D-05, r^2= 1.5D+01
   Bfn.  Coefficient  Atom+Function         Bfn.  Coefficient  Atom+Function  
  ----- ------------  ---------------      ----- ------------  ---------------
   142     12.141751   4 C  s                96      8.719834   3 C  s         
   188      8.719668   5 C  s               151     -6.853409   4 C  py        
   325     -5.933666   9 H  s                 4     -5.262179   1 C  s         
   334     -5.022842   9 H  py                5      4.915352   1 C  s         
   302     -4.395293   8 H  s               348     -4.395970  10 H  s         
 
 Vector   71  Occ=0.000000D+00  E= 3.346563D-01
              MO Center= -1.7D-03,  2.6D-02,  1.8D-04, r^2= 7.7D+00
   Bfn.  Coefficient  Atom+Function         Bfn.  Coefficient  Atom+Function  
  ----- ------------  ---------------      ----- ------------  ---------------
   289      2.037103   7 H  pz              381      2.036924  11 H  pz        
   335      1.840534   9 H  pz               14     -1.763990   1 C  pz        
   155     -1.713073   4 C  pz               63     -1.558038   2 C  pz        
   247     -1.558015   6 C  pz               77     -1.511397   2 C  d  1      
   261      1.409972   6 C  d  1            106     -1.288797   3 C  pz        
 
 Vector   72  Occ=0.000000D+00  E= 3.434163D-01
              MO Center=  2.5D-02, -4.0D-01, -5.0D-03, r^2= 1.2D+01
   Bfn.  Coefficient  Atom+Function         Bfn.  Coefficient  Atom+Function  
  ----- ------------  ---------------      ----- ------------  ---------------
   169      3.276082   4 C  d  1             31      2.708851   1 C  d  1      
   312     -2.492348   8 H  pz              358      2.492641  10 H  pz        
   123      2.189433   3 C  d  1            215      2.152886   5 C  d  1      
   106     -1.806066   3 C  pz              198      1.806006   5 C  pz        
   289     -1.406143   7 H  pz              381      1.406489  11 H  pz        
 
 Vector   73  Occ=0.000000D+00  E= 3.446199D-01
              MO Center= -3.6D-02,  5.7D-01, -1.9D-03, r^2= 1.2D+01
   Bfn.  Coefficient  Atom+Function         Bfn.  Coefficient  Atom+Function  
  ----- ------------  ---------------      ----- ------------  ---------------
   143     23.467509   4 C  s               325    -12.914317   9 H  s         
   279     11.910129   7 H  s               371     11.904362  11 H  s         
    51    -11.578500   2 C  s               235    -11.565751   6 C  s         
     5     -7.846417   1 C  s               197     -6.932563   5 C  py        
   105     -6.816564   3 C  py              243     -6.046278   6 C  py        
 
 Vector   74  Occ=0.000000D+00  E= 3.473817D-01
              MO Center=  1.0D-02, -1.6D-01,  4.6D-03, r^2= 1.2D+01
   Bfn.  Coefficient  Atom+Function         Bfn.  Coefficient  Atom+Function  
  ----- ------------  ---------------      ----- ------------  ---------------
    51     21.072016   2 C  s               235    -21.076814   6 C  s         
   302    -11.942500   8 H  s               348     11.939964  10 H  s         
    97     10.787615   3 C  s               189    -10.785495   5 C  s         
   279     -9.663874   7 H  s               371      9.670176  11 H  s         
    12     -8.095893   1 C  px              150     -7.069394   4 C  px        
 
 Vector   75  Occ=0.000000D+00  E= 3.481672D-01
              MO Center=  3.3D-02, -5.2D-01,  3.0D-03, r^2= 1.3D+01
   Bfn.  Coefficient  Atom+Function         Bfn.  Coefficient  Atom+Function  
  ----- ------------  ---------------      ----- ------------  ---------------
   155     -3.966231   4 C  pz               17      3.794753   1 C  pz        
   109      3.559987   3 C  pz              201      3.559907   5 C  pz        
    63     -3.457304   2 C  pz              247     -3.457199   6 C  pz        
   152     -2.999555   4 C  pz              213     -2.299954   5 C  d -1      
   289      2.253387   7 H  pz              381      2.253696  11 H  pz        
 
 Vector   76  Occ=0.000000D+00  E= 3.526361D-01
              MO Center=  3.3D-02, -5.2D-01, -2.6D-04, r^2= 1.4D+01
   Bfn.  Coefficient  Atom+Function         Bfn.  Coefficient  Atom+Function  
  ----- ------------  ---------------      ----- ------------  ---------------
    17      6.381644   1 C  pz               63     -5.847079   2 C  pz        
   247     -5.847018   6 C  pz              109      5.106447   3 C  pz        
   201      5.106415   5 C  pz              155     -4.829112   4 C  pz        
   335      3.948791   9 H  pz               14      3.800082   1 C  pz        
   167      3.064985   4 C  d -1             60     -2.689593   2 C  pz        
 
 Vector   77  Occ=0.000000D+00  E= 3.544057D-01
              MO Center= -2.0D-02,  3.2D-01, -6.1D-04, r^2= 1.5D+01
   Bfn.  Coefficient  Atom+Function         Bfn.  Coefficient  Atom+Function  
  ----- ------------  ---------------      ----- ------------  ---------------
     5     31.193206   1 C  s               143     15.959263   4 C  s         
    51    -15.680030   2 C  s               235    -15.681202   6 C  s         
   151    -10.959121   4 C  py              196     -7.424047   5 C  px        
    50      7.328220   2 C  s               234      7.327648   6 C  s         
    13      7.278183   1 C  py              104      6.987835   3 C  px        
 
 Vector   78  Occ=0.000000D+00  E= 3.598741D-01
              MO Center= -4.9D-02,  7.7D-01,  2.3D-04, r^2= 1.3D+01
   Bfn.  Coefficient  Atom+Function         Bfn.  Coefficient  Atom+Function  
  ----- ------------  ---------------      ----- ------------  ---------------
   289      3.406516   7 H  pz              381     -3.406414  11 H  pz        
    60      3.148320   2 C  pz              244     -3.148226   6 C  pz        
    77     -3.076643   2 C  d  1            121     -3.078210   3 C  d -1      
   259      3.017883   6 C  d -1            213      2.779156   5 C  d -1      
   312     -2.739759   8 H  pz              358      2.739923  10 H  pz        
 
 Vector   79  Occ=0.000000D+00  E= 3.682142D-01
              MO Center=  3.7D-02, -5.8D-01, -1.8D-04, r^2= 1.3D+01
   Bfn.  Coefficient  Atom+Function         Bfn.  Coefficient  Atom+Function  
  ----- ------------  ---------------      ----- ------------  ---------------
    96     10.647612   3 C  s               188     10.649195   5 C  s         
   104     -8.592131   3 C  px              196      8.592810   5 C  px        
   142     -7.464876   4 C  s                 5      6.505169   1 C  s         
   212      5.446936   5 C  d -2            258      5.330773   6 C  d -2      
   120     -5.294991   3 C  d -2            242     -5.127054   6 C  px        
 
 Vector   80  Occ=0.000000D+00  E= 3.716792D-01
              MO Center=  2.0D-02, -3.1D-01, -2.1D-04, r^2= 1.3D+01
   Bfn.  Coefficient  Atom+Function         Bfn.  Coefficient  Atom+Function  
  ----- ------------  ---------------      ----- ------------  ---------------
    97      9.952470   3 C  s               189     -9.953744   5 C  s         
    50      8.861454   2 C  s               234     -8.861846   6 C  s         
   279     -5.565066   7 H  s               371      5.562325  11 H  s         
   357      5.226585  10 H  py              311     -5.114660   8 H  py        
   212     -4.819417   5 C  d -2             51     -4.510952   2 C  s         
 
 Vector   81  Occ=0.000000D+00  E= 3.817089D-01
              MO Center=  3.5D-02, -5.6D-01, -3.4D-06, r^2= 1.6D+01
   Bfn.  Coefficient  Atom+Function         Bfn.  Coefficient  Atom+Function  
  ----- ------------  ---------------      ----- ------------  ---------------
   166      9.012232   4 C  d -2            333      7.076559   9 H  px        
   150     -6.580764   4 C  px              216     -6.521240   5 C  d  2      
   124      6.086882   3 C  d  2            279      5.926171   7 H  s         
   371     -5.925815  11 H  s               310      5.098733   8 H  px        
   356      5.032590  10 H  px               96     -4.858834   3 C  s         
 
 Vector   82  Occ=0.000000D+00  E= 3.932765D-01
              MO Center= -2.9D-02,  4.6D-01,  2.0D-04, r^2= 1.5D+01
   Bfn.  Coefficient  Atom+Function         Bfn.  Coefficient  Atom+Function  
  ----- ------------  ---------------      ----- ------------  ---------------
    12     12.208615   1 C  px               51    -11.104248   2 C  s         
   235     11.102328   6 C  s                78     -9.072841   2 C  d  2      
   262      8.742015   6 C  d  2             15     -6.850409   1 C  px        
   216      6.666933   5 C  d  2            153     -5.877835   4 C  px        
   124     -5.819153   3 C  d  2            379     -5.815577  11 H  px        
 
 Vector   83  Occ=0.000000D+00  E= 3.960400D-01
              MO Center= -5.2D-02,  8.3D-01,  2.5D-04, r^2= 1.2D+01
   Bfn.  Coefficient  Atom+Function         Bfn.  Coefficient  Atom+Function  
  ----- ------------  ---------------      ----- ------------  ---------------
   152     -7.488806   4 C  pz              106      7.304643   3 C  pz        
   198      7.304453   5 C  pz               60     -6.454292   2 C  pz        
   244     -6.454198   6 C  pz              167     -6.319698   4 C  d -1      
   215      5.106184   5 C  d  1            123     -4.700569   3 C  d  1      
    14      4.550581   1 C  pz              259      4.028952   6 C  d -1      
 
 Vector   84  Occ=0.000000D+00  E= 4.016330D-01
              MO Center= -3.1D-02,  4.9D-01, -7.8D-04, r^2= 1.5D+01
   Bfn.  Coefficient  Atom+Function         Bfn.  Coefficient  Atom+Function  
  ----- ------------  ---------------      ----- ------------  ---------------
     5     50.479768   1 C  s                51    -19.229992   2 C  s         
   235    -19.235857   6 C  s                97    -17.123100   3 C  s         
   189    -17.123989   5 C  s               143     10.952546   4 C  s         
   142    -10.380929   4 C  s                 4     -9.420978   1 C  s         
   325      8.033665   9 H  s                50     -7.832971   2 C  s         
 
 Vector   85  Occ=0.000000D+00  E= 4.049406D-01
              MO Center= -8.4D-03,  1.3D-01, -5.7D-05, r^2= 1.3D+01
   Bfn.  Coefficient  Atom+Function         Bfn.  Coefficient  Atom+Function  
  ----- ------------  ---------------      ----- ------------  ---------------
     5     35.487462   1 C  s               143     18.234863   4 C  s         
    51    -13.663813   2 C  s               235    -13.664012   6 C  s         
[...]
     Occ.   13 beta  a   ---  Virt.   21 beta  a    0.06055 X
     Occ.   15 beta  a   ---  Virt.   21 beta  a    0.11230 X
     Occ.   19 beta  a   ---  Virt.   23 beta  a    0.24014 X
     Occ.   19 beta  a   ---  Virt.   29 beta  a   -0.05483 X
     Occ.   20 beta  a   ---  Virt.   22 beta  a   -0.15819 X
  ----------------------------------------------------------------------------
  Root  27         a              0.251819350 a.u.                6.8524 eV 
  <S2> =   1.6616
  ----------------------------------------------------------------------------
     Transition Moments    X  0.00000   Y  0.00000   Z  0.24517
     Transition Moments   XX  0.00005  XY -0.00008  XZ -0.01025
     Transition Moments   YY  0.00013  YZ  0.16402  ZZ  0.00003
     Dipole Oscillator Strength                    0.0100912027
     Electric Quadrupole                           0.0000000023
     Magnetic Dipole                               0.0000000308
     Total Oscillator Strength                     0.0100912358
 
     Occ.   19 alpha a   ---  Virt.   26 alpha a    0.98240 X
     Occ.   19 alpha a   ---  Virt.   35 alpha a   -0.07139 X
     Occ.   19 alpha a   ---  Virt.   36 alpha a   -0.07338 X
     Occ.   20 alpha a   ---  Virt.   25 alpha a    0.11437 X
     Occ.   20 beta  a   ---  Virt.   26 beta  a    0.05055 X
  ----------------------------------------------------------------------------
  Root  28         a              0.252444187 a.u.                6.8694 eV 
  <S2> =   1.8890
  ----------------------------------------------------------------------------
     Transition Moments    X -0.00004   Y -0.00001   Z  0.00004
     Transition Moments   XX -0.00000  XY  0.00001  XZ -0.39271
     Transition Moments   YY -0.00007  YZ -0.02475  ZZ -0.00002
     Dipole Oscillator Strength                    0.0000000006
     Electric Quadrupole                           0.0000000133
     Magnetic Dipole                               0.0000000094
     Total Oscillator Strength                     0.0000000233
 
     Occ.   19 alpha a   ---  Virt.   25 alpha a    0.24939 X
     Occ.   20 alpha a   ---  Virt.   26 alpha a    0.95986 X
     Occ.   20 alpha a   ---  Virt.   35 alpha a   -0.06167 X
     Occ.   20 alpha a   ---  Virt.   36 alpha a   -0.06517 X
     Occ.   19 beta  a   ---  Virt.   26 beta  a   -0.06463 X
  ----------------------------------------------------------------------------
  Root  29         a              0.253814664 a.u.                6.9067 eV 
  <S2> =   1.6189
  ----------------------------------------------------------------------------
     Transition Moments    X  0.00005   Y -0.00002   Z  0.00001
     Transition Moments   XX -0.00002  XY  0.00004  XZ -0.49313
     Transition Moments   YY -0.00010  YZ -0.03106  ZZ -0.00003
     Dipole Oscillator Strength                    0.0000000005
     Electric Quadrupole                           0.0000000213
     Magnetic Dipole                               0.0000000108
     Total Oscillator Strength                     0.0000000326
 
     Occ.   20 alpha a   ---  Virt.   26 alpha a    0.06924 X
     Occ.   19 beta  a   ---  Virt.   26 beta  a    0.98515 X
     Occ.   19 beta  a   ---  Virt.   35 beta  a   -0.05793 X
     Occ.   19 beta  a   ---  Virt.   36 beta  a   -0.07385 X
     Occ.   20 beta  a   ---  Virt.   25 beta  a    0.09708 X
  ----------------------------------------------------------------------------
  Root  30         a              0.254455191 a.u.                6.9241 eV 
  <S2> =   0.7714
  ----------------------------------------------------------------------------
     Transition Moments    X -1.48416   Y -0.09328   Z  0.00003
     Transition Moments   XX -0.02732  XY  0.21693  XZ -0.00004
     Transition Moments   YY  0.02760  YZ  0.00002  ZZ  0.00003
     Dipole Oscillator Strength                    0.3751404057
     Electric Quadrupole                           0.0000000042
     Magnetic Dipole                               0.0000000313
     Total Oscillator Strength                     0.3751404412
 
     Occ.   19 alpha a   ---  Virt.   22 alpha a   -0.37392 X
     Occ.   19 alpha a   ---  Virt.   22 alpha a    0.05241 Y
     Occ.   20 alpha a   ---  Virt.   23 alpha a    0.41958 X
     Occ.   20 alpha a   ---  Virt.   23 alpha a   -0.05041 Y
     Occ.   20 alpha a   ---  Virt.   29 alpha a   -0.13762 X
     Occ.   21 alpha a   ---  Virt.   25 alpha a    0.08055 X
     Occ.   21 alpha a   ---  Virt.   27 alpha a   -0.42431 X
     Occ.   13 beta  a   ---  Virt.   21 beta  a    0.12501 X
     Occ.   15 beta  a   ---  Virt.   21 beta  a    0.26521 X
     Occ.   19 beta  a   ---  Virt.   23 beta  a    0.49001 X
     Occ.   19 beta  a   ---  Virt.   29 beta  a   -0.13604 X
     Occ.   20 beta  a   ---  Virt.   22 beta  a   -0.34291 X
     Occ.   20 beta  a   ---  Virt.   22 beta  a    0.05538 Y
  ----------------------------------------------------------------------------
  Root  31         a              0.255377646 a.u.                6.9492 eV 
  <S2> =   0.8015
  ----------------------------------------------------------------------------
     Transition Moments    X  0.03985   Y -0.63648   Z -0.00000
     Transition Moments   XX -0.64067  XY  0.07887  XZ  0.00002
     Transition Moments   YY -1.88803  YZ -0.00003  ZZ -0.14556
     Dipole Oscillator Strength                    0.0692396356
     Electric Quadrupole                           0.0000000721
     Magnetic Dipole                               0.0000000000
     Total Oscillator Strength                     0.0692397077
 
     Occ.   19 alpha a   ---  Virt.   23 alpha a    0.10507 X
     Occ.   20 alpha a   ---  Virt.   22 alpha a    0.11345 X
     Occ.   21 alpha a   ---  Virt.   26 alpha a    0.18507 X
     Occ.   21 alpha a   ---  Virt.   28 alpha a   -0.90883 X
     Occ.   21 alpha a   ---  Virt.   30 alpha a   -0.12898 X
     Occ.   21 alpha a   ---  Virt.   31 alpha a   -0.16235 X
     Occ.   21 alpha a   ---  Virt.   48 alpha a    0.05664 X
     Occ.   16 beta  a   ---  Virt.   21 beta  a    0.19431 X
     Occ.   19 beta  a   ---  Virt.   22 beta  a    0.10810 X
     Occ.   20 beta  a   ---  Virt.   23 beta  a    0.09594 X
  ----------------------------------------------------------------------------
  Root  32         a              0.260818008 a.u.                7.0972 eV 
  <S2> =   0.8001
  ----------------------------------------------------------------------------
     Transition Moments    X  0.00001   Y -0.00002   Z  0.09580
     Transition Moments   XX -0.00000  XY -0.00000  XZ -0.04445
     Transition Moments   YY -0.00005  YZ  0.70536  ZZ -0.00000
     Dipole Oscillator Strength                    0.0015958246
     Electric Quadrupole                           0.0000000472
     Magnetic Dipole                               0.0000000326
     Total Oscillator Strength                     0.0015959043
 
     Occ.   21 alpha a   ---  Virt.   29 alpha a   -0.97945 X
     Occ.   21 alpha a   ---  Virt.   33 alpha a   -0.18027 X
  ----------------------------------------------------------------------------
  Root  33         a              0.265220681 a.u.                7.2170 eV 
  <S2> =   1.7811
  ----------------------------------------------------------------------------
     Transition Moments    X -0.00001   Y -0.00001   Z  0.00000
     Transition Moments   XX  0.00006  XY -0.00002  XZ -0.54659
     Transition Moments   YY  0.00003  YZ -0.03444  ZZ  0.00003
     Dipole Oscillator Strength                    0.0000000000
     Electric Quadrupole                           0.0000000298
     Magnetic Dipole                               0.0000000006
     Total Oscillator Strength                     0.0000000304
 
     Occ.   20 beta  a   ---  Virt.   27 beta  a   -0.99101 X
     Occ.   20 beta  a   ---  Virt.   38 beta  a    0.09655 X
  ----------------------------------------------------------------------------
  Root  34         a              0.267068666 a.u.                7.2673 eV 
  <S2> =   0.8227
  ----------------------------------------------------------------------------
     Transition Moments    X -0.07596   Y  1.20764   Z -0.00000
     Transition Moments   XX -0.04844  XY  0.04005  XZ -0.00001
     Transition Moments   YY -0.68216  YZ -0.00005  ZZ -0.05155
     Dipole Oscillator Strength                    0.2606886489
     Electric Quadrupole                           0.0000000137
     Magnetic Dipole                               0.0000000000
     Total Oscillator Strength                     0.2606886626
 
     Occ.   17 alpha a   ---  Virt.   23 alpha a    0.09098 X
     Occ.   19 alpha a   ---  Virt.   23 alpha a   -0.30579 X
     Occ.   19 alpha a   ---  Virt.   29 alpha a   -0.16209 X
     Occ.   20 alpha a   ---  Virt.   22 alpha a   -0.22264 X
     Occ.   21 alpha a   ---  Virt.   28 alpha a   -0.30508 X
     Occ.   21 alpha a   ---  Virt.   30 alpha a    0.41007 X
     Occ.   21 alpha a   ---  Virt.   31 alpha a   -0.07758 X
     Occ.   14 beta  a   ---  Virt.   21 beta  a    0.08868 X
     Occ.   16 beta  a   ---  Virt.   21 beta  a   -0.51196 X
     Occ.   19 beta  a   ---  Virt.   22 beta  a   -0.22324 X
     Occ.   20 beta  a   ---  Virt.   23 beta  a   -0.30809 X
     Occ.   20 beta  a   ---  Virt.   29 beta  a   -0.34444 X
  ----------------------------------------------------------------------------
  Root  35         a              0.270592899 a.u.                7.3632 eV 
  <S2> =   2.7412
  ----------------------------------------------------------------------------
     Transition Moments    X  0.04787   Y  0.00300   Z  0.00009
     Transition Moments   XX  0.00366  XY -0.02930  XZ -0.00008
     Transition Moments   YY -0.00365  YZ  0.00143  ZZ -0.00002
     Dipole Oscillator Strength                    0.0004149620
     Electric Quadrupole                           0.0000000001
     Magnetic Dipole                               0.0000000018
     Total Oscillator Strength                     0.0004149638
 
     Occ.   17 alpha a   ---  Virt.   22 alpha a    0.59934 X
     Occ.   17 alpha a   ---  Virt.   41 alpha a   -0.05236 X
     Occ.   19 alpha a   ---  Virt.   32 alpha a   -0.08278 X
     Occ.   20 alpha a   ---  Virt.   29 alpha a    0.15390 X
     Occ.   20 alpha a   ---  Virt.   44 alpha a   -0.22896 X
     Occ.   20 alpha a   ---  Virt.   47 alpha a    0.17340 X
     Occ.   17 beta  a   ---  Virt.   22 beta  a   -0.64638 X
     Occ.   17 beta  a   ---  Virt.   41 beta  a    0.05428 X
     Occ.   19 beta  a   ---  Virt.   29 beta  a   -0.09504 X
     Occ.   19 beta  a   ---  Virt.   44 beta  a    0.20228 X
     Occ.   19 beta  a   ---  Virt.   47 beta  a   -0.16638 X
     Occ.   20 beta  a   ---  Virt.   31 beta  a    0.10027 X
  ----------------------------------------------------------------------------
  Root  36         a              0.270597311 a.u.                7.3633 eV 
  <S2> =   2.7035
  ----------------------------------------------------------------------------
     Transition Moments    X  0.00045   Y  0.00002   Z -0.00969
     Transition Moments   XX  0.00004  XY -0.00029  XZ  0.00971
     Transition Moments   YY -0.00002  YZ -0.15364  ZZ -0.00001
     Dipole Oscillator Strength                    0.0000169767
     Electric Quadrupole                           0.0000000025
     Magnetic Dipole                               0.0000000000
     Total Oscillator Strength                     0.0000169792
 
     Occ.   20 alpha a   ---  Virt.   27 alpha a    0.79804 X
     Occ.   20 alpha a   ---  Virt.   38 alpha a   -0.08817 X
     Occ.   19 beta  a   ---  Virt.   27 beta  a   -0.57543 X
     Occ.   19 beta  a   ---  Virt.   38 beta  a    0.06821 X
     Occ.   20 beta  a   ---  Virt.   28 beta  a   -0.05374 X
     Occ.   20 beta  a   ---  Virt.   30 beta  a   -0.06056 X
  ----------------------------------------------------------------------------
  Root  37         a              0.271604501 a.u.                7.3907 eV 
  <S2> =   0.8302
  ----------------------------------------------------------------------------
     Transition Moments    X  0.00001   Y  0.00002   Z  0.02486
     Transition Moments   XX -0.00006  XY  0.00005  XZ -0.05501
     Transition Moments   YY -0.00002  YZ  0.87385  ZZ  0.00000
     Dipole Oscillator Strength                    0.0001119345
     Electric Quadrupole                           0.0000000818
     Magnetic Dipole                               0.0000000039
     Total Oscillator Strength                     0.0001120202
 
     Occ.   20 alpha a   ---  Virt.   27 alpha a   -0.57240 X
     Occ.   19 beta  a   ---  Virt.   27 beta  a   -0.80166 X
     Occ.   19 beta  a   ---  Virt.   38 beta  a    0.07527 X
     Occ.   20 beta  a   ---  Virt.   28 beta  a    0.12720 X
  ----------------------------------------------------------------------------
  Root  38         a              0.271762390 a.u.                7.3950 eV 
  <S2> =   1.0646
  ----------------------------------------------------------------------------
     Transition Moments    X  0.03030   Y -0.48123   Z  0.00001
     Transition Moments   XX  1.04026  XY  0.11349  XZ -0.00001
     Transition Moments   YY -0.75403  YZ  0.00013  ZZ  0.23853
     Dipole Oscillator Strength                    0.0421228919
     Electric Quadrupole                           0.0000000877
     Magnetic Dipole                               0.0000000000
     Total Oscillator Strength                     0.0421229796
 
     Occ.   17 alpha a   ---  Virt.   23 alpha a   -0.06256 X
     Occ.   19 alpha a   ---  Virt.   23 alpha a    0.08241 X
     Occ.   21 alpha a   ---  Virt.   30 alpha a    0.80041 X
     Occ.   21 alpha a   ---  Virt.   31 alpha a   -0.20579 X
     Occ.   21 alpha a   ---  Virt.   35 alpha a    0.07299 X
     Occ.   21 alpha a   ---  Virt.   40 alpha a   -0.05698 X
     Occ.   14 beta  a   ---  Virt.   21 beta  a   -0.06039 X
     Occ.   16 beta  a   ---  Virt.   21 beta  a    0.17719 X
     Occ.   19 beta  a   ---  Virt.   22 beta  a    0.05240 X
     Occ.   20 beta  a   ---  Virt.   23 beta  a    0.08744 X
     Occ.   20 beta  a   ---  Virt.   29 beta  a    0.48863 X
  ----------------------------------------------------------------------------
  Root  39         a              0.272103034 a.u.                7.4043 eV 
  <S2> =   1.7257
  ----------------------------------------------------------------------------
     Transition Moments    X -0.00000   Y  0.00000   Z  0.00003
     Transition Moments   XX  0.00006  XY -0.00002  XZ -0.55016
     Transition Moments   YY  0.00000  YZ -0.03435  ZZ  0.00002
     Dipole Oscillator Strength                    0.0000000002
     Electric Quadrupole                           0.0000000326
     Magnetic Dipole                               0.0000000013
     Total Oscillator Strength                     0.0000000341
 
     Occ.   19 alpha a   ---  Virt.   27 alpha a   -0.99030 X
     Occ.   19 alpha a   ---  Virt.   38 alpha a    0.09598 X
  ----------------------------------------------------------------------------
  Root  40         a              0.272313192 a.u.                7.4100 eV 
  <S2> =   1.9637
  ----------------------------------------------------------------------------
     Transition Moments    X -0.00001   Y  0.00005   Z  0.04153
     Transition Moments   XX  0.00001  XY  0.00002  XZ -0.02748
     Transition Moments   YY  0.00006  YZ  0.44069  ZZ  0.00001
     Dipole Oscillator Strength                    0.0003131155
     Electric Quadrupole                           0.0000000210
     Magnetic Dipole                               0.0000000052
     Total Oscillator Strength                     0.0003131416
 
     Occ.   19 alpha a   ---  Virt.   28 alpha a   -0.11786 X
     Occ.   20 alpha a   ---  Virt.   27 alpha a    0.12574 X
     Occ.   17 beta  a   ---  Virt.   21 beta  a   -0.05471 X
     Occ.   19 beta  a   ---  Virt.   27 beta  a    0.06705 X
     Occ.   20 beta  a   ---  Virt.   28 beta  a    0.96959 X
     Occ.   20 beta  a   ---  Virt.   30 beta  a    0.05548 X
     Occ.   20 beta  a   ---  Virt.   32 beta  a    0.07440 X
     Occ.   20 beta  a   ---  Virt.   43 beta  a    0.08094 X
 
              Target root =      1
          Target symmetry = none
      Ground state energy =   -231.646316899668
        Excitation energy =      0.106177966632
     Excited state energy =   -231.540138933036
 
  stored tddft:energy   -231.540138933036     

 Task  times  cpu:     2599.3s     wall:     2705.3s
 
 
                                NWChem Input Module
                                -------------------
 
 
 Summary of allocated global arrays
-----------------------------------
  No active global arrays



                         GA Statistics for process    0
                         ------------------------------

       create   destroy   get      put      acc     scatter   gather  read&inc
calls: 9504     9504     1.13e+07 4.03e+06 3.51e+06 5640        0      362     
number of processes/call 1.28e+00 1.75e+00 1.93e+00 0.00e+00 0.00e+00
bytes total:             1.04e+11 1.09e+10 1.08e+11 6.26e+04 0.00e+00 2.90e+03
bytes remote:            7.91e+10 1.09e+09 1.03e+11 0.00e+00 0.00e+00 0.00e+00
Max memory consumed for GA by this process: 205086464 bytes
 
MA_summarize_allocated_blocks: starting scan ...
MA_summarize_allocated_blocks: scan completed: 0 heap blocks, 0 stack blocks
MA usage statistics:

	allocation statistics:
					      heap	     stack
					      ----	     -----
	current number of blocks	         0	         0
	maximum number of blocks	        20	        52
	current total bytes		         0	         0
	maximum total bytes		   1166016	  68276392
	maximum total K-bytes		      1167	     68277
	maximum total M-bytes		         2	        69
 
 
                                     CITATION
                                     --------
                Please cite the following reference when publishing
                           results obtained with NWChem:
 
                 M. Valiev, E.J. Bylaska, N. Govind, K. Kowalski,
              T.P. Straatsma, H.J.J. van Dam, D. Wang, J. Nieplocha,
                        E. Apra, T.L. Windus, W.A. de Jong
                 "NWChem: a comprehensive and scalable open-source
                  solution for large scale molecular simulations"
                      Comput. Phys. Commun. 181, 1477 (2010)
                           doi:10.1016/j.cpc.2010.04.018
 
                                      AUTHORS
                                      -------
          E. Apra, E. J. Bylaska, W. A. de Jong, N. Govind, K. Kowalski,
       T. P. Straatsma, M. Valiev, H. J. J. van Dam, D. Wang, T. L. Windus,
        J. Hammond, J. Autschbach, K. Bhaskaran-Nair, J. Brabec, K. Lopata,
    S. A. Fischer, S. Krishnamoorthy, M. Jacquelin, W. Ma, M. Klemm, O. Villa,
      Y. Chen, V. Anisimov, F. Aquino, S. Hirata, M. T. Hackler, V. Konjkov,
            D. Mejia-Rodriguez, T. Risthaus, M. Malagoli, A. Marenich,
   A. Otero-de-la-Roza, J. Mullin, P. Nichols, R. Peverati, J. Pittner, Y. Zhao,
        P.-D. Fan, A. Fonari, M. J. Williamson, R. J. Harrison, J. R. Rehr,
      M. Dupuis, D. Silverstein, D. M. A. Smith, J. Nieplocha, V. Tipparaju,
    M. Krishnan, B. E. Van Kuiken, A. Vazquez-Mayagoitia, L. Jensen, M. Swart,
      Q. Wu, T. Van Voorhis, A. A. Auer, M. Nooijen, L. D. Crosby, E. Brown,
      G. Cisneros, G. I. Fann, H. Fruchtl, J. Garza, K. Hirao, R. A. Kendall,
      J. A. Nichols, K. Tsemekhman, K. Wolinski, J. Anchell, D. E. Bernholdt,
      P. Borowski, T. Clark, D. Clerc, H. Dachsel, M. J. O. Deegan, K. Dyall,
    D. Elwood, E. Glendening, M. Gutowski, A. C. Hess, J. Jaffe, B. G. Johnson,
     J. Ju, R. Kobayashi, R. Kutteh, Z. Lin, R. Littlefield, X. Long, B. Meng,
      T. Nakajima, S. Niu, L. Pollack, M. Rosing, K. Glaesemann, G. Sandrone,
      M. Stave, H. Taylor, G. Thomas, J. H. van Lenthe, A. T. Wong, Z. Zhang.

 Total times  cpu:     2599.3s     wall:     2706.1s
