 argument  1 = /storage/home/j/jbb5516/normalModes/mode618.21-m.nw
 


============================== echo of input deck ==============================
echo
start

title "None"

geometry
C    -0.08761979    1.39064429    0.00000005
C    -1.26615524    0.69126916   -0.00000002
C    -1.16612587   -0.70481866   -0.00000002
C     0.08303613   -1.31789631    0.00000004
C     1.24536945   -0.55287906   -0.00000001
C     1.16937730    0.84472352    0.00000005
H    -2.23157765    1.17928534   -0.00000010
H    -2.06725536   -1.30466008   -0.00000009
H     0.15104405   -2.39728411   -0.00000000
H     2.21466190   -1.03487072   -0.00000013
H     2.06591191    1.45005489   -0.00000010
symmetry c1
end

basis spherical
 * library "aug-cc-pvtz"
end

dft
 direct
 mult 2
 iterations 500
 xc b3lyp
end

tddft
 nroots 40
 notriplet
 algorithm 1
end
task tddft energy
================================================================================


                                         
                                         
 
 
              Northwest Computational Chemistry Package (NWChem) 6.8
              ------------------------------------------------------
 
 
                    Environmental Molecular Sciences Laboratory
                       Pacific Northwest National Laboratory
                                Richland, WA 99352
 
                              Copyright (c) 1994-2017
                       Pacific Northwest National Laboratory
                            Battelle Memorial Institute
 
             NWChem is an open-source computational chemistry package
                        distributed under the terms of the
                      Educational Community License (ECL) 2.0
             A copy of the license is included with this distribution
                              in the LICENSE.TXT file
 
                                  ACKNOWLEDGMENT
                                  --------------

            This software and its documentation were developed at the
            EMSL at Pacific Northwest National Laboratory, a multiprogram
            national laboratory, operated for the U.S. Department of Energy
            by Battelle under Contract Number DE-AC05-76RL01830. Support
            for this work was provided by the Department of Energy Office
            of Biological and Environmental Research, Office of Basic
            Energy Sciences, and the Office of Advanced Scientific Computing.


           Job information
           ---------------

    hostname        = comp-sc-0114.acib.production.int.aci.ics.psu.edu
    program         = /gpfs/group/lxj18/default/jeffprograms/nwchem-6.8.1/bin/LINUX64/nwchem
    date            = Sun Sep 20 19:11:32 2020

    compiled        = Wed_Oct_03_14:08:39_2018
    source          = /gpfs/group/lxj18/default/jeffprograms/nwchem-6.8.1
    nwchem branch   = 6.8.1
    nwchem revision = v6.8-143-gdb0d964
    ga revision     = 5.6.5
    use scalapack   = F
    input           = /storage/home/j/jbb5516/normalModes/mode618.21-m.nw
    prefix          = mode618.21-m.
    data base       = ./mode618.21-m.db
    status          = startup
    nproc           =       20
    time left       =     -1s



           Memory information
           ------------------

    heap     =   13107200 doubles =    100.0 Mbytes
    stack    =   13107197 doubles =    100.0 Mbytes
    global   =   26214400 doubles =    200.0 Mbytes (distinct from heap & stack)
    total    =   52428797 doubles =    400.0 Mbytes
    verify   = yes
    hardfail = no 


           Directory information
           ---------------------
 
  0 permanent = .
  0 scratch   = .
 
 
 
 
                                NWChem Input Module
                                -------------------
 
 
                                       None
                                       ----

 Scaling coordinates for geometry "geometry" by  1.889725989
 (inverse scale =  0.529177249)

 Turning off AUTOSYM since
 SYMMETRY directive was detected!
 

          ------
          auto-z
          ------
 
 
                             Geometry "geometry" -> ""
                             -------------------------
 
 Output coordinates in angstroms (scale by  1.889725989 to convert to a.u.)
 
  No.       Tag          Charge          X              Y              Z
 ---- ---------------- ---------- -------------- -------------- --------------
    1 C                    6.0000    -0.08762166     1.39067397     0.00000005
    2 C                    6.0000    -1.26615711     0.69129884    -0.00000002
    3 C                    6.0000    -1.16612774    -0.70478898    -0.00000002
    4 C                    6.0000     0.08303426    -1.31786663     0.00000004
    5 C                    6.0000     1.24536758    -0.55284938    -0.00000001
    6 C                    6.0000     1.16937543     0.84475320     0.00000005
    7 H                    1.0000    -2.23157952     1.17931502    -0.00000010
    8 H                    1.0000    -2.06725723    -1.30463040    -0.00000009
    9 H                    1.0000     0.15104218    -2.39725443    -0.00000000
   10 H                    1.0000     2.21466003    -1.03484104    -0.00000013
   11 H                    1.0000     2.06591004     1.45008457    -0.00000010
 
      Atomic Mass 
      ----------- 
 
      C                 12.000000
      H                  1.007825
 

 Effective nuclear repulsion energy (a.u.)     195.0630089501

            Nuclear Dipole moment (a.u.) 
            ----------------------------
        X                 Y               Z
 ---------------- ---------------- ----------------
    -0.0000000000    -0.0000000000     0.0000000000
 


                                Z-matrix (autoz)
                                -------- 

 Units are Angstrom for bonds and degrees for angles
 
      Type          Name      I     J     K     L     M      Value
      ----------- --------  ----- ----- ----- ----- ----- ----------
    1 Stretch                  1     2                       1.37043
    2 Stretch                  1     6                       1.37043
    3 Stretch                  2     3                       1.39967
    4 Stretch                  2     7                       1.08176
    5 Stretch                  3     4                       1.39150
    6 Stretch                  3     8                       1.08252
    7 Stretch                  4     5                       1.39150
    8 Stretch                  4     9                       1.08153
    9 Stretch                  5     6                       1.39967
   10 Stretch                  5    10                       1.08252
   11 Stretch                  6    11                       1.08176
   12 Bend                     1     2     3               116.58783
   13 Bend                     1     2     7               122.49758
   14 Bend                     1     6     5               116.58786
   15 Bend                     1     6    11               122.49759
   16 Bend                     2     1     6               125.83838
   17 Bend                     2     3     4               120.23962
   18 Bend                     2     3     8               119.55170
   19 Bend                     3     2     7               120.91459
   20 Bend                     3     4     5               120.50674
   21 Bend                     3     4     9               119.74661
   22 Bend                     4     3     8               120.20868
   23 Bend                     4     5     6               120.23957
   24 Bend                     4     5    10               120.20876
   25 Bend                     5     4     9               119.74665
   26 Bend                     5     6    11               120.91454
   27 Bend                     6     5    10               119.55167
   28 Torsion                  1     2     3     4           0.00000
   29 Torsion                  1     2     3     8        -180.00000
   30 Torsion                  1     6     5     4           0.00000
   31 Torsion                  1     6     5    10         180.00000
   32 Torsion                  2     1     6     5           0.00000
   33 Torsion                  2     1     6    11         180.00000
   34 Torsion                  2     3     4     5           0.00000
   35 Torsion                  2     3     4     9        -180.00000
   36 Torsion                  3     2     1     6           0.00000
   37 Torsion                  3     4     5     6           0.00000
   38 Torsion                  3     4     5    10        -180.00000
   39 Torsion                  4     3     2     7         180.00000
   40 Torsion                  4     5     6    11        -180.00000
   41 Torsion                  5     4     3     8         180.00000
   42 Torsion                  6     1     2     7        -180.00000
   43 Torsion                  6     5     4     9        -180.00000
   44 Torsion                  7     2     3     8           0.00000
   45 Torsion                  8     3     4     9           0.00000
   46 Torsion                  9     4     5    10           0.00000
   47 Torsion                 10     5     6    11           0.00000
 
 
            XYZ format geometry
            -------------------
    11
 geometry
 C                    -0.08762166     1.39067397     0.00000005
 C                    -1.26615711     0.69129884    -0.00000002
 C                    -1.16612774    -0.70478898    -0.00000002
 C                     0.08303426    -1.31786663     0.00000004
 C                     1.24536758    -0.55284938    -0.00000001
 C                     1.16937543     0.84475320     0.00000005
 H                    -2.23157952     1.17931502    -0.00000010
 H                    -2.06725723    -1.30463040    -0.00000009
 H                     0.15104218    -2.39725443    -0.00000000
 H                     2.21466003    -1.03484104    -0.00000013
 H                     2.06591004     1.45008457    -0.00000010
 
 ==============================================================================
                                internuclear distances
 ------------------------------------------------------------------------------
       center one      |      center two      | atomic units |  angstroms
 ------------------------------------------------------------------------------
    2 C                |   1 C                |     2.58973  |     1.37043
    3 C                |   2 C                |     2.64499  |     1.39967
    4 C                |   3 C                |     2.62955  |     1.39150
    5 C                |   4 C                |     2.62955  |     1.39150
    6 C                |   1 C                |     2.58973  |     1.37043
    6 C                |   5 C                |     2.64499  |     1.39967
    7 H                |   2 C                |     2.04423  |     1.08176
    8 H                |   3 C                |     2.04566  |     1.08252
    9 H                |   4 C                |     2.04379  |     1.08153
   10 H                |   5 C                |     2.04566  |     1.08252
   11 H                |   6 C                |     2.04423  |     1.08176
 ------------------------------------------------------------------------------
                         number of included internuclear distances:         11
 ==============================================================================



 ==============================================================================
                                 internuclear angles
 ------------------------------------------------------------------------------
        center 1       |       center 2       |       center 3       |  degrees
 ------------------------------------------------------------------------------
    2 C                |   1 C                |   6 C                |   125.84
    1 C                |   2 C                |   3 C                |   116.59
    1 C                |   2 C                |   7 H                |   122.50
    3 C                |   2 C                |   7 H                |   120.91
    2 C                |   3 C                |   4 C                |   120.24
    2 C                |   3 C                |   8 H                |   119.55
    4 C                |   3 C                |   8 H                |   120.21
    3 C                |   4 C                |   5 C                |   120.51
    3 C                |   4 C                |   9 H                |   119.75
    5 C                |   4 C                |   9 H                |   119.75
    4 C                |   5 C                |   6 C                |   120.24
    4 C                |   5 C                |  10 H                |   120.21
    6 C                |   5 C                |  10 H                |   119.55
    1 C                |   6 C                |   5 C                |   116.59
    1 C                |   6 C                |  11 H                |   122.50
    5 C                |   6 C                |  11 H                |   120.91
 ------------------------------------------------------------------------------
                            number of included internuclear angles:         16
 ==============================================================================





 Summary of "ao basis" -> "" (spherical)
 ------------------------------------------------------------------------------
       Tag                 Description            Shells   Functions and Types
 ---------------- ------------------------------  ------  ---------------------
 *                        aug-cc-pvtz                 on all atoms 


 
                                 NWChem DFT Module
                                 -----------------
 
 
                                       None
 
 
                      Basis "ao basis" -> "ao basis" (spherical)
                      -----
  C (Carbon)
  ----------
            Exponent  Coefficients 
       -------------- ---------------------------------------------------------
  1 S  8.23600000E+03  0.000531
  1 S  1.23500000E+03  0.004108
  1 S  2.80800000E+02  0.021087
  1 S  7.92700000E+01  0.081853
  1 S  2.55900000E+01  0.234817
  1 S  8.99700000E+00  0.434401
  1 S  3.31900000E+00  0.346129
  1 S  3.64300000E-01 -0.008983
 
  2 S  8.23600000E+03 -0.000113
  2 S  1.23500000E+03 -0.000878
  2 S  2.80800000E+02 -0.004540
  2 S  7.92700000E+01 -0.018133
  2 S  2.55900000E+01 -0.055760
  2 S  8.99700000E+00 -0.126895
  2 S  3.31900000E+00 -0.170352
  2 S  3.64300000E-01  0.598684
 
  3 S  9.05900000E-01  1.000000
 
  4 S  1.28500000E-01  1.000000
 
  5 S  4.40200000E-02  1.000000
 
  6 P  1.87100000E+01  0.014031
  6 P  4.13300000E+00  0.086866
  6 P  1.20000000E+00  0.290216
 
  7 P  3.82700000E-01  1.000000
 
  8 P  1.20900000E-01  1.000000
 
  9 P  3.56900000E-02  1.000000
 
 10 D  1.09700000E+00  1.000000
 
 11 D  3.18000000E-01  1.000000
 
 12 D  1.00000000E-01  1.000000
 
 13 F  7.61000000E-01  1.000000
 
 14 F  2.68000000E-01  1.000000
 
  H (Hydrogen)
  ------------
            Exponent  Coefficients 
       -------------- ---------------------------------------------------------
  1 S  3.38700000E+01  0.006068
  1 S  5.09500000E+00  0.045308
  1 S  1.15900000E+00  0.202822
 
  2 S  3.25800000E-01  1.000000
 
  3 S  1.02700000E-01  1.000000
 
  4 S  2.52600000E-02  1.000000
 
  5 P  1.40700000E+00  1.000000
 
  6 P  3.88000000E-01  1.000000
 
  7 P  1.02000000E-01  1.000000
 
  8 D  1.05700000E+00  1.000000
 
  9 D  2.47000000E-01  1.000000
 


 Summary of "ao basis" -> "ao basis" (spherical)
 ------------------------------------------------------------------------------
       Tag                 Description            Shells   Functions and Types
 ---------------- ------------------------------  ------  ---------------------
 C                        aug-cc-pvtz               14       46   5s4p3d2f
 H                        aug-cc-pvtz                9       23   4s3p2d




 Summary of "ao basis" -> "ao basis" (spherical)
 ------------------------------------------------------------------------------
       Tag                 Description            Shells   Functions and Types
 ---------------- ------------------------------  ------  ---------------------
 C                        aug-cc-pvtz               14       46   5s4p3d2f
 H                        aug-cc-pvtz                9       23   4s3p2d


  Caching 1-el integrals 
 
            General Information
            -------------------
          SCF calculation type: DFT
          Wavefunction type:  spin polarized.
          No. of atoms     :    11
          No. of electrons :    41
           Alpha electrons :    21
            Beta electrons :    20
          Charge           :     0
          Spin multiplicity:     2
          Use of symmetry is: off; symmetry adaption is: off
          Maximum number of iterations: 500
          This is a Direct SCF calculation.
          AO basis - number of functions:   391
                     number of shells:   129
          Convergence on energy requested:  1.00D-06
          Convergence on density requested:  1.00D-05
          Convergence on gradient requested:  5.00D-04
 
              XC Information
              --------------
                         B3LYP Method XC Potential
                     Hartree-Fock (Exact) Exchange  0.200          
                        Slater Exchange Functional  0.800 local    
                    Becke 1988 Exchange Functional  0.720 non-local
              Lee-Yang-Parr Correlation Functional  0.810          
                  VWN I RPA Correlation Functional  0.190 local    
 
             Grid Information
             ----------------
          Grid used for XC integration:  medium    
          Radial quadrature: Mura-Knowles        
          Angular quadrature: Lebedev. 
          Tag              B.-S. Rad. Rad. Pts. Rad. Cut. Ang. Pts.
          ---              ---------- --------- --------- ---------
          C                   0.70       49          15.0       434
          H                   0.35       45          17.0       434
          Grid pruning is: on 
          Number of quadrature shells:   519
          Spatial weights used:  Erf1
 
          Convergence Information
          -----------------------
          Convergence aids based upon iterative change in 
          total energy or number of iterations. 
          Levelshifting, if invoked, occurs when the 
          HOMO/LUMO gap drops below (HL_TOL):  1.00D-02
          DIIS, if invoked, will attempt to extrapolate 
          using up to (NFOCK): 10 stored Fock matrices.

                    Damping( 0%)  Levelshifting(0.5)       DIIS
                  --------------- ------------------- ---------------
          dE  on:    start            ASAP                start   
          dE off:    2 iters        500 iters           500 iters 

 
      Screening Tolerance Information
      -------------------------------
          Density screening/tol_rho:  1.00D-10
          AO Gaussian exp screening on grid/accAOfunc:  14
          CD Gaussian exp screening on grid/accCDfunc:  20
          XC Gaussian exp screening on grid/accXCfunc:  20
          Schwarz screening/accCoul:  1.00D-08

 
 WARNING : Found     7 linear dependencies 
 S eigenvalue threshold:     1.00000E-05
 Smallest S eigenvalue :     1.46468E-06
 Largest  S eigenvalue :     7.75678E-06
 

 !! The overlap matrix has   7 vectors deemed linearly dependent with
    eigenvalues:
 1.46D-06 2.24D-06 2.82D-06 3.54D-06 5.28D-06 5.94D-06 7.76D-06
 
 
      Superposition of Atomic Density Guess
      -------------------------------------
 
 Sum of atomic energies:        -228.52307259
 
      Non-variational initial energy
      ------------------------------

 Total energy =    -232.667088
 1-e energy   =    -691.326571
 2-e energy   =     263.596474
 HOMO         =      -0.183827
 LUMO         =      -0.022229
 
   Time after variat. SCF:      8.9
   Time prior to 1st pass:      8.9

 Grid_pts file          = ./mode618.21-m.gridpts.00
 Record size in doubles =  12289        No. of grid_pts per rec  =   3070
 Max. records in memory =      6        Max. recs in file   = 219088901

 Grid integrated density:      40.999764879985
 Requested integration accuracy:   0.10E-05

           Memory utilization after 1st SCF pass: 
           Heap Space remaining (MW):       12.96            12961280
          Stack Space remaining (MW):       13.10            13103676

   convergence    iter        energy       DeltaE   RMS-Dens  Diis-err    time
 ---------------- ----- ----------------- --------- --------- ---------  ------
 d= 0,ls=0.0,diis     1   -231.5815117055 -4.27D+02  6.14D-02  2.09D-01    19.7
                                                     6.94D-02  1.96D-01
 d= 0,ls=0.0,diis     2   -231.6398662831 -5.84D-02  6.04D-02  1.21D-02    30.3
                                                     6.82D-02  1.24D-02
 d= 0,ls=0.0,diis     3   -231.6446488398 -4.78D-03  1.27D-03  3.36D-03    41.0
                                                     1.38D-03  3.41D-03
 d= 0,ls=0.0,diis     4   -231.6457736476 -1.12D-03  1.99D-04  1.10D-03    51.7
                                                     2.03D-04  1.05D-03
 d= 0,ls=0.0,diis     5   -231.6462827455 -5.09D-04  3.39D-05  4.25D-05    62.4
                                                     3.12D-05  4.85D-05
  Resetting Diis
 d= 0,ls=0.0,diis     6   -231.6463108287 -2.81D-05  1.11D-05  7.48D-06    73.2
                                                     1.07D-05  5.93D-06
 d= 0,ls=0.0,diis     7   -231.6463169162 -6.09D-06  7.07D-06  2.01D-06    83.9
                                                     6.37D-06  2.34D-06
 d= 0,ls=0.0,diis     8   -231.6463181406 -1.22D-06  2.97D-06  5.08D-06    94.6
                                                     2.62D-06  4.42D-06
 d= 0,ls=0.0,diis     9   -231.6463211856 -3.04D-06  3.52D-06  3.86D-07   105.3
                                                     3.12D-06  3.33D-07
 d= 0,ls=0.0,diis    10   -231.6463224208 -1.24D-06  2.32D-06  2.05D-07   116.0
                                                     2.60D-06  3.01D-07
 d= 0,ls=0.0,diis    11   -231.6463229004 -4.80D-07  5.79D-07  1.11D-08   126.7
                                                     5.10D-07  9.48D-09


         Total DFT energy =     -231.646322900401
      One electron energy =     -696.558782302399
           Coulomb energy =      304.258649188655
    Exchange-Corr. energy =      -34.409198736766
 Nuclear repulsion energy =      195.063008950109

 Numeric. integr. density =       40.999983873828

     Total iterative time =    117.8s


 
                    DFT Final Alpha Molecular Orbital Analysis
                    ------------------------------------------
 
 Vector    1  Occ=1.000000D+00  E=-1.020538D+01
              MO Center= -8.8D-02,  1.4D+00,  4.8D-08, r^2= 3.0D-02
   Bfn.  Coefficient  Atom+Function         Bfn.  Coefficient  Atom+Function  
  ----- ------------  ---------------      ----- ------------  ---------------
     1      0.984177   1 C  s                 3      0.058847   1 C  s         
    50     -0.038607   2 C  s               234     -0.038608   6 C  s         
   143      0.037925   4 C  s               279      0.037734   7 H  s         
   371      0.037733  11 H  s                51     -0.030678   2 C  s         
   235     -0.030677   6 C  s                47      0.025034   2 C  s         
 
 Vector    2  Occ=1.000000D+00  E=-1.019179D+01
              MO Center= -6.9D-01, -6.2D-01, -2.3D-08, r^2= 1.0D+00
   Bfn.  Coefficient  Atom+Function         Bfn.  Coefficient  Atom+Function  
  ----- ------------  ---------------      ----- ------------  ---------------
    93      0.864067   3 C  s               185      0.432999   5 C  s         
    47      0.173812   2 C  s               142     -0.093307   4 C  s         
   231      0.076329   6 C  s               139      0.057086   4 C  s         
    95      0.051675   3 C  s               325      0.048885   9 H  s         
   302      0.048141   8 H  s               234      0.034757   6 C  s         
 
 Vector    3  Occ=1.000000D+00  E=-1.019177D+01
              MO Center=  7.6D-01, -5.2D-01, -1.4D-08, r^2= 1.1D+00
   Bfn.  Coefficient  Atom+Function         Bfn.  Coefficient  Atom+Function  
  ----- ------------  ---------------      ----- ------------  ---------------
   185      0.861988   5 C  s                93     -0.428896   3 C  s         
   231      0.188077   6 C  s                47     -0.104682   2 C  s         
    50      0.062104   2 C  s               348      0.058659  10 H  s         
    51      0.053277   2 C  s               234     -0.051571   6 C  s         
   279     -0.051729   7 H  s               187      0.051313   5 C  s         
 
 Vector    4  Occ=1.000000D+00  E=-1.019031D+01
              MO Center= -1.1D+00,  6.5D-01, -1.9D-08, r^2= 4.4D-01
   Bfn.  Coefficient  Atom+Function         Bfn.  Coefficient  Atom+Function  
  ----- ------------  ---------------      ----- ------------  ---------------
    47      0.935661   2 C  s               231      0.241114   6 C  s         
    93     -0.190192   3 C  s               279      0.058657   7 H  s         
    49      0.054686   2 C  s               143      0.038543   4 C  s         
   185     -0.037143   5 C  s                 4     -0.035386   1 C  s         
   142     -0.032464   4 C  s               189      0.030958   5 C  s         
 
 Vector    5  Occ=1.000000D+00  E=-1.019029D+01
              MO Center=  1.0D+00,  7.7D-01,  4.1D-08, r^2= 4.5D-01
   Bfn.  Coefficient  Atom+Function         Bfn.  Coefficient  Atom+Function  
  ----- ------------  ---------------      ----- ------------  ---------------
   231      0.933907   6 C  s                47     -0.234278   2 C  s         
   185     -0.196321   5 C  s                93      0.060859   3 C  s         
   371      0.056063  11 H  s               233      0.054142   6 C  s         
    97      0.046500   3 C  s                96      0.041249   3 C  s         
   189     -0.040397   5 C  s               188     -0.037754   5 C  s         
 
 Vector    6  Occ=1.000000D+00  E=-1.018440D+01
              MO Center=  8.3D-02, -1.3D+00,  3.9D-08, r^2= 3.5D-02
   Bfn.  Coefficient  Atom+Function         Bfn.  Coefficient  Atom+Function  
  ----- ------------  ---------------      ----- ------------  ---------------
   139      0.984232   4 C  s               141      0.057790   4 C  s         
    96     -0.046362   3 C  s               188     -0.046364   5 C  s         
   325      0.046093   9 H  s               143     -0.043630   4 C  s         
     4      0.041131   1 C  s                93     -0.040329   3 C  s         
   185     -0.040410   5 C  s               151      0.036257   4 C  py        
 
 Vector    7  Occ=1.000000D+00  E=-8.724326D-01
              MO Center= -6.3D-03,  9.9D-02,  5.1D-09, r^2= 2.0D+00
   Bfn.  Coefficient  Atom+Function         Bfn.  Coefficient  Atom+Function  
  ----- ------------  ---------------      ----- ------------  ---------------
     2      0.213954   1 C  s                48      0.202691   2 C  s         
   232      0.202675   6 C  s                94      0.195626   3 C  s         
   186      0.195610   5 C  s               140      0.188237   4 C  s         
    50      0.089423   2 C  s               234      0.089414   6 C  s         
    96      0.087561   3 C  s               188      0.087557   5 C  s         
 
 Vector    8  Occ=1.000000D+00  E=-7.625218D-01
              MO Center= -6.3D-03,  1.0D-01,  2.2D-09, r^2= 2.8D+00
   Bfn.  Coefficient  Atom+Function         Bfn.  Coefficient  Atom+Function  
  ----- ------------  ---------------      ----- ------------  ---------------
    48      0.250822   2 C  s               232     -0.250830   6 C  s         
    94      0.243842   3 C  s               186     -0.243849   5 C  s         
    50      0.145707   2 C  s               234     -0.145718   6 C  s         
   279     -0.129543   7 H  s               371      0.129548  11 H  s         
   150     -0.115894   4 C  px               97      0.110686   3 C  s         
 
 Vector    9  Occ=1.000000D+00  E=-7.539853D-01
              MO Center=  9.2D-03, -1.5D-01, -2.7D-08, r^2= 2.6D+00
   Bfn.  Coefficient  Atom+Function         Bfn.  Coefficient  Atom+Function  
  ----- ------------  ---------------      ----- ------------  ---------------
   140     -0.300839   4 C  s                 2      0.278583   1 C  s         
    94     -0.148899   3 C  s               186     -0.148890   5 C  s         
    48      0.148031   2 C  s               232      0.148024   6 C  s         
   142     -0.146976   4 C  s                96     -0.104883   3 C  s         
   188     -0.104880   5 C  s                 4      0.102469   1 C  s         
 
 Vector   10  Occ=1.000000D+00  E=-6.186554D-01
              MO Center= -2.5D-03,  4.0D-02, -1.0D-08, r^2= 3.6D+00
   Bfn.  Coefficient  Atom+Function         Bfn.  Coefficient  Atom+Function  
  ----- ------------  ---------------      ----- ------------  ---------------
    94     -0.208531   3 C  s               186      0.208526   5 C  s         
    48      0.199512   2 C  s               232     -0.199517   6 C  s         
    50      0.183524   2 C  s               234     -0.183532   6 C  s         
    96     -0.147587   3 C  s               188      0.147579   5 C  s         
     6     -0.127317   1 C  px              144      0.116944   4 C  px        
 
 Vector   11  Occ=1.000000D+00  E=-6.036802D-01
              MO Center=  5.5D-03, -8.7D-02, -3.2D-08, r^2= 3.5D+00
   Bfn.  Coefficient  Atom+Function         Bfn.  Coefficient  Atom+Function  
  ----- ------------  ---------------      ----- ------------  ---------------
   142      0.258857   4 C  s                 2      0.238953   1 C  s         
   140      0.218949   4 C  s                 4      0.198874   1 C  s         
    94     -0.138218   3 C  s               186     -0.138235   5 C  s         
    50     -0.122275   2 C  s               234     -0.122267   6 C  s         
    96     -0.119176   3 C  s               188     -0.119189   5 C  s         
 
 Vector   12  Occ=1.000000D+00  E=-5.277330D-01
              MO Center=  9.7D-03, -1.5D-01, -1.1D-08, r^2= 4.1D+00
   Bfn.  Coefficient  Atom+Function         Bfn.  Coefficient  Atom+Function  
  ----- ------------  ---------------      ----- ------------  ---------------
   148      0.159308   4 C  py              145      0.139070   4 C  py        
   324     -0.126858   9 H  s                55      0.105483   2 C  px        
   240     -0.104508   6 C  py              323     -0.100505   9 H  s         
   237     -0.095840   6 C  py              193     -0.094845   5 C  px        
   278     -0.094409   7 H  s               370     -0.094404  11 H  s         
 
 Vector   13  Occ=1.000000D+00  E=-4.645134D-01
              MO Center= -6.6D-03,  1.0D-01,  5.1D-10, r^2= 2.7D+00
   Bfn.  Coefficient  Atom+Function         Bfn.  Coefficient  Atom+Function  
  ----- ------------  ---------------      ----- ------------  ---------------
     9      0.189202   1 C  px                6      0.175279   1 C  px        
   147      0.172678   4 C  px              144      0.159177   4 C  px        
   194     -0.135728   5 C  py              239     -0.135800   6 C  px        
    56     -0.132392   2 C  py              102      0.121813   3 C  py        
   191     -0.122269   5 C  py              236     -0.121093   6 C  px        
 
 Vector   14  Occ=1.000000D+00  E=-4.630710D-01
              MO Center=  1.0D-02, -1.6D-01, -4.3D-08, r^2= 4.8D+00
   Bfn.  Coefficient  Atom+Function         Bfn.  Coefficient  Atom+Function  
  ----- ------------  ---------------      ----- ------------  ---------------
     2      0.176193   1 C  s               301      0.136608   8 H  s         
   347      0.136587  10 H  s               140     -0.129239   4 C  s         
   193      0.127873   5 C  px              196      0.120155   5 C  px        
   101     -0.118919   3 C  px               96      0.118096   3 C  s         
   188      0.118114   5 C  s               190      0.118618   5 C  px        
 
 Vector   15  Occ=1.000000D+00  E=-4.396349D-01
              MO Center= -1.3D-02,  2.1D-01, -2.5D-08, r^2= 4.0D+00
   Bfn.  Coefficient  Atom+Function         Bfn.  Coefficient  Atom+Function  
  ----- ------------  ---------------      ----- ------------  ---------------
   240      0.143096   6 C  py              102      0.138327   3 C  py        
   237      0.132107   6 C  py              278     -0.131730   7 H  s         
   370      0.131726  11 H  s                55      0.130312   2 C  px        
    99      0.129427   3 C  py               56     -0.127756   2 C  py        
   194     -0.125953   5 C  py               53     -0.118746   2 C  py        
 
 Vector   16  Occ=1.000000D+00  E=-3.994430D-01
              MO Center=  4.9D-02, -7.8D-01, -9.4D-09, r^2= 3.3D+00
   Bfn.  Coefficient  Atom+Function         Bfn.  Coefficient  Atom+Function  
  ----- ------------  ---------------      ----- ------------  ---------------
   148      0.233292   4 C  py              145      0.208966   4 C  py        
   324     -0.198580   9 H  s               151      0.171794   4 C  py        
   323     -0.153877   9 H  s                10      0.139018   1 C  py        
    13      0.121448   1 C  py              240      0.115255   6 C  py        
    56      0.109435   2 C  py                7      0.108206   1 C  py        
 
 Vector   17  Occ=1.000000D+00  E=-3.836925D-01
              MO Center= -7.7D-03,  1.2D-01, -5.8D-08, r^2= 2.7D+00
   Bfn.  Coefficient  Atom+Function         Bfn.  Coefficient  Atom+Function  
  ----- ------------  ---------------      ----- ------------  ---------------
    11      0.173423   1 C  pz               57      0.156393   2 C  pz        
   241      0.156382   6 C  pz              103      0.152242   3 C  pz        
   195      0.152230   5 C  pz              149      0.145929   4 C  pz        
     8      0.136808   1 C  pz               54      0.125771   2 C  pz        
   238      0.125762   6 C  pz              100      0.121739   3 C  pz        
 
 Vector   18  Occ=1.000000D+00  E=-3.657626D-01
              MO Center=  9.1D-03, -1.4D-01, -2.7D-08, r^2= 4.1D+00
   Bfn.  Coefficient  Atom+Function         Bfn.  Coefficient  Atom+Function  
  ----- ------------  ---------------      ----- ------------  ---------------
   147     -0.169442   4 C  px              101      0.165104   3 C  px        
   193      0.165004   5 C  px              144     -0.159869   4 C  px        
     9      0.149574   1 C  px               98      0.149445   3 C  px        
   190      0.149116   5 C  px                6      0.141589   1 C  px        
   196      0.135762   5 C  px              104      0.133647   3 C  px        
 
 Vector   19  Occ=1.000000D+00  E=-2.686929D-01
              MO Center=  8.9D-04, -1.5D-02,  7.5D-08, r^2= 3.0D+00
   Bfn.  Coefficient  Atom+Function         Bfn.  Coefficient  Atom+Function  
  ----- ------------  ---------------      ----- ------------  ---------------
    11      0.245331   1 C  pz              149     -0.238513   4 C  pz        
     8      0.192924   1 C  pz              146     -0.190668   4 C  pz        
    14      0.176632   1 C  pz              152     -0.171877   4 C  pz        
   103     -0.126551   3 C  pz              195     -0.126474   5 C  pz        
    57      0.114780   2 C  pz              241      0.114848   6 C  pz        
 
 Vector   20  Occ=1.000000D+00  E=-2.677212D-01
              MO Center= -3.8D-03,  6.1D-02,  2.8D-07, r^2= 3.1D+00
   Bfn.  Coefficient  Atom+Function         Bfn.  Coefficient  Atom+Function  
  ----- ------------  ---------------      ----- ------------  ---------------
   103      0.207476   3 C  pz              195     -0.207525   5 C  pz        
    57      0.203837   2 C  pz              241     -0.203802   6 C  pz        
   100      0.165300   3 C  pz              192     -0.165339   5 C  pz        
    54      0.163235   2 C  pz              238     -0.163206   6 C  pz        
    60      0.150484   2 C  pz              106      0.149985   3 C  pz        
 
 Vector   21  Occ=1.000000D+00  E=-2.488503D-01
              MO Center= -8.2D-02,  1.3D+00,  8.6D-08, r^2= 2.3D+00
   Bfn.  Coefficient  Atom+Function         Bfn.  Coefficient  Atom+Function  
  ----- ------------  ---------------      ----- ------------  ---------------
    10      0.385741   1 C  py                5      0.335836   1 C  s         
    13      0.337284   1 C  py                7      0.299104   1 C  py        
     4      0.279861   1 C  s                 2      0.138857   1 C  s         
   243     -0.136163   6 C  py               59     -0.134054   2 C  py        
   102      0.112599   3 C  py              194      0.112598   5 C  py        
 
 Vector   22  Occ=0.000000D+00  E=-2.595705D-02
              MO Center= -4.3D-03,  6.8D-02, -8.8D-07, r^2= 4.3D+00
   Bfn.  Coefficient  Atom+Function         Bfn.  Coefficient  Atom+Function  
  ----- ------------  ---------------      ----- ------------  ---------------
   109     -0.320360   3 C  pz              201      0.320341   5 C  pz        
    63      0.314907   2 C  pz              247     -0.314894   6 C  pz        
    60      0.226879   2 C  pz              244     -0.226871   6 C  pz        
   106     -0.223637   3 C  pz              198      0.223626   5 C  pz        
    57      0.218781   2 C  pz              241     -0.218776   6 C  pz        
 
 Vector   23  Occ=0.000000D+00  E=-1.868132D-02
              MO Center=  3.1D-03, -5.0D-02, -4.2D-06, r^2= 4.3D+00
   Bfn.  Coefficient  Atom+Function         Bfn.  Coefficient  Atom+Function  
  ----- ------------  ---------------      ----- ------------  ---------------
   155      0.439394   4 C  pz               17      0.372855   1 C  pz        
   152      0.274135   4 C  pz               11      0.259013   1 C  pz        
   149      0.250828   4 C  pz               14      0.240436   1 C  pz        
   109     -0.225859   3 C  pz              201     -0.225866   5 C  pz        
     8      0.200665   1 C  pz               63     -0.197632   2 C  pz        
 
 Vector   24  Occ=0.000000D+00  E=-1.011765D-02
              MO Center=  6.0D-02, -9.6D-01, -1.5D-06, r^2= 2.0D+01
   Bfn.  Coefficient  Atom+Function         Bfn.  Coefficient  Atom+Function  
  ----- ------------  ---------------      ----- ------------  ---------------
     5      1.446546   1 C  s               279     -0.977887   7 H  s         
   371     -0.977826  11 H  s               326     -0.744003   9 H  s         
   303     -0.729293   8 H  s               349     -0.729231  10 H  s         
   302     -0.648923   8 H  s               348     -0.649050  10 H  s         
   325     -0.589376   9 H  s                51      0.560934   2 C  s         
 
 Vector   25  Occ=0.000000D+00  E= 4.388444D-03
              MO Center=  1.6D-02, -2.6D-01, -7.1D-06, r^2= 2.7D+01
   Bfn.  Coefficient  Atom+Function         Bfn.  Coefficient  Atom+Function  
  ----- ------------  ---------------      ----- ------------  ---------------
    51      2.732169   2 C  s               235     -2.730952   6 C  s         
    97      2.673186   3 C  s               189     -2.673213   5 C  s         
   303      1.996923   8 H  s               349     -1.997295  10 H  s         
    15      1.863618   1 C  px              153      1.803011   4 C  px        
   280      1.540013   7 H  s               372     -1.539345  11 H  s         
 
 Vector   26  Occ=0.000000D+00  E= 8.730335D-03
              MO Center=  4.6D-03, -7.5D-02,  6.3D-05, r^2= 2.7D+01
   Bfn.  Coefficient  Atom+Function         Bfn.  Coefficient  Atom+Function  
  ----- ------------  ---------------      ----- ------------  ---------------
   143      6.247925   4 C  s                51     -4.016932   2 C  s         
   235     -4.016162   6 C  s               326      2.934522   9 H  s         
     5      2.600524   1 C  s               280     -2.388357   7 H  s         
   372     -2.387864  11 H  s               154      1.949037   4 C  py        
   246      1.931138   6 C  py               62      1.827136   2 C  py        
 
 Vector   27  Occ=0.000000D+00  E= 2.671520D-02
              MO Center= -1.5D-02,  2.4D-01, -9.8D-06, r^2= 3.1D+01
   Bfn.  Coefficient  Atom+Function         Bfn.  Coefficient  Atom+Function  
  ----- ------------  ---------------      ----- ------------  ---------------
   280      3.937938   7 H  s               372     -3.937468  11 H  s         
    51      3.667054   2 C  s               235     -3.666659   6 C  s         
   303     -3.606045   8 H  s               349      3.604935  10 H  s         
    61      2.237345   2 C  px               97     -2.185859   3 C  s         
   189      2.186091   5 C  s               199     -2.054174   5 C  px        
 
 Vector   28  Occ=0.000000D+00  E= 3.221836D-02
              MO Center=  3.9D-02, -6.2D-01, -1.1D-04, r^2= 2.9D+01
   Bfn.  Coefficient  Atom+Function         Bfn.  Coefficient  Atom+Function  
  ----- ------------  ---------------      ----- ------------  ---------------
     5      6.404643   1 C  s               326     -4.991597   9 H  s         
   303      3.726190   8 H  s               349      3.727043  10 H  s         
    97     -2.179508   3 C  s               154     -2.172162   4 C  py        
   189     -2.178803   5 C  s               199     -1.648666   5 C  px        
   245      1.636829   6 C  px               61     -1.583493   2 C  px        
 
 Vector   29  Occ=0.000000D+00  E= 4.329389D-02
              MO Center=  1.4D-02, -2.2D-01,  6.7D-06, r^2= 1.3D+01
   Bfn.  Coefficient  Atom+Function         Bfn.  Coefficient  Atom+Function  
  ----- ------------  ---------------      ----- ------------  ---------------
   155      0.601435   4 C  pz               63      0.573049   2 C  pz        
   247      0.573007   6 C  pz               17     -0.255498   1 C  pz        
    60     -0.155993   2 C  pz              244     -0.156015   6 C  pz        
   289     -0.122694   7 H  pz              381     -0.122691  11 H  pz        
   259      0.119086   6 C  d -1             77      0.109784   2 C  d  1      
 
 Vector   30  Occ=0.000000D+00  E= 5.497385D-02
              MO Center=  9.6D-03, -1.5D-01, -4.0D-05, r^2= 1.5D+01
   Bfn.  Coefficient  Atom+Function         Bfn.  Coefficient  Atom+Function  
  ----- ------------  ---------------      ----- ------------  ---------------
     5     10.584645   1 C  s               143      5.146424   4 C  s         
    51     -4.387799   2 C  s               235     -4.387781   6 C  s         
   303     -2.786412   8 H  s               349     -2.786350  10 H  s         
   326      2.019805   9 H  s               199      1.982781   5 C  px        
    97     -1.924276   3 C  s               189     -1.924165   5 C  s         
 
 Vector   31  Occ=0.000000D+00  E= 6.332895D-02
              MO Center= -4.1D-02,  6.5D-01, -1.1D-04, r^2= 2.8D+01
   Bfn.  Coefficient  Atom+Function         Bfn.  Coefficient  Atom+Function  
  ----- ------------  ---------------      ----- ------------  ---------------
     5     24.418531   1 C  s                51     -9.914253   2 C  s         
   235     -9.915085   6 C  s               143      7.693179   4 C  s         
    97     -6.507216   3 C  s               189     -6.507349   5 C  s         
   326      5.873014   9 H  s               154      4.781257   4 C  py        
   303     -4.691532   8 H  s               349     -4.691692  10 H  s         
 
 Vector   32  Occ=0.000000D+00  E= 6.576245D-02
              MO Center=  1.7D-03, -2.5D-02,  5.3D-04, r^2= 1.8D+01
   Bfn.  Coefficient  Atom+Function         Bfn.  Coefficient  Atom+Function  
  ----- ------------  ---------------      ----- ------------  ---------------
   109      0.977476   3 C  pz              201     -0.977493   5 C  pz        
    63      0.770441   2 C  pz              247     -0.770379   6 C  pz        
   169     -0.676693   4 C  d  1             31     -0.581412   1 C  d  1      
   106      0.491762   3 C  pz              198     -0.491779   5 C  pz        
    60      0.487166   2 C  pz              244     -0.487135   6 C  pz        
 
 Vector   33  Occ=0.000000D+00  E= 6.825451D-02
              MO Center= -1.2D-02,  1.9D-01, -2.9D-04, r^2= 1.8D+01
   Bfn.  Coefficient  Atom+Function         Bfn.  Coefficient  Atom+Function  
  ----- ------------  ---------------      ----- ------------  ---------------
    63      1.010562   2 C  pz              247      1.010537   6 C  pz        
   109     -0.797868   3 C  pz              201     -0.797729   5 C  pz        
   155     -0.764644   4 C  pz               14      0.636344   1 C  pz        
   152     -0.624804   4 C  pz               17      0.472560   1 C  pz        
   213     -0.448806   5 C  d -1            261     -0.409898   6 C  d  1      
 
 Vector   34  Occ=0.000000D+00  E= 7.646885D-02
              MO Center=  8.8D-03, -1.6D-01, -1.2D-04, r^2= 3.4D+01
   Bfn.  Coefficient  Atom+Function         Bfn.  Coefficient  Atom+Function  
  ----- ------------  ---------------      ----- ------------  ---------------
    51     13.858185   2 C  s               235    -13.846880   6 C  s         
    97     12.409762   3 C  s               189    -12.412572   5 C  s         
    15      7.668576   1 C  px              153      7.689652   4 C  px        
   107      4.764576   3 C  px              303      4.696841   8 H  s         
   349     -4.697155  10 H  s               199      4.459178   5 C  px        
 
 Vector   35  Occ=0.000000D+00  E= 7.792050D-02
              MO Center=  2.0D-01, -3.3D+00,  1.4D-04, r^2= 2.1D+01
   Bfn.  Coefficient  Atom+Function         Bfn.  Coefficient  Atom+Function  
  ----- ------------  ---------------      ----- ------------  ---------------
   143     18.258541   4 C  s                51    -13.441571   2 C  s         
   235    -13.444627   6 C  s               326      7.027542   9 H  s         
    62      5.648923   2 C  py              246      5.671022   6 C  py        
   200      5.396418   5 C  py              154      5.277450   4 C  py        
   108      5.038411   3 C  py              279      4.195495   7 H  s         
 
 Vector   36  Occ=0.000000D+00  E= 8.155270D-02
              MO Center= -8.7D-02,  1.4D+00,  8.5D-05, r^2= 2.8D+01
   Bfn.  Coefficient  Atom+Function         Bfn.  Coefficient  Atom+Function  
  ----- ------------  ---------------      ----- ------------  ---------------
   143     20.752042   4 C  s                51     -8.981633   2 C  s         
   235     -8.983942   6 C  s               246      5.263316   6 C  py        
    62      5.171800   2 C  py              325     -4.978547   9 H  s         
   280     -4.565936   7 H  s               372     -4.565351  11 H  s         
   200      4.498629   5 C  py              326      4.501259   9 H  s         
 
 Vector   37  Occ=0.000000D+00  E= 8.316674D-02
              MO Center=  4.6D-02, -7.2D-01, -1.1D-05, r^2= 2.2D+01
   Bfn.  Coefficient  Atom+Function         Bfn.  Coefficient  Atom+Function  
  ----- ------------  ---------------      ----- ------------  ---------------
    97      4.941260   3 C  s               189     -4.944841   5 C  s         
    51     -3.142116   2 C  s               235      3.151958   6 C  s         
   303      2.796401   8 H  s               349     -2.795853  10 H  s         
   108      2.765610   3 C  py              200     -2.654762   5 C  py        
   153      2.628966   4 C  px               96      2.083682   3 C  s         
 
 Vector   38  Occ=0.000000D+00  E= 9.539913D-02
              MO Center= -5.5D-02,  8.7D-01,  9.9D-06, r^2= 3.1D+01
   Bfn.  Coefficient  Atom+Function         Bfn.  Coefficient  Atom+Function  
  ----- ------------  ---------------      ----- ------------  ---------------
    51     17.707176   2 C  s               235    -17.712080   6 C  s         
   280      7.222362   7 H  s               372     -7.222925  11 H  s         
    97     -6.882541   3 C  s               189      6.884577   5 C  s         
   108     -6.404861   3 C  py              303     -6.207946   8 H  s         
   349      6.206151  10 H  s               200      5.857687   5 C  py        
 
 Vector   39  Occ=0.000000D+00  E= 1.018550D-01
              MO Center= -7.2D-03,  1.1D-01, -3.3D-04, r^2= 1.9D+01
   Bfn.  Coefficient  Atom+Function         Bfn.  Coefficient  Atom+Function  
  ----- ------------  ---------------      ----- ------------  ---------------
    51     13.717454   2 C  s               235    -13.715281   6 C  s         
    97     10.877730   3 C  s               189    -10.878754   5 C  s         
    15     10.006032   1 C  px              153      9.701628   4 C  px        
   246     -6.131640   6 C  py              108     -6.033641   3 C  py        
   200      5.998669   5 C  py               62      5.944401   2 C  py        
 
 Vector   40  Occ=0.000000D+00  E= 1.064581D-01
              MO Center= -8.4D-03,  1.4D-01, -5.8D-04, r^2= 2.1D+01
   Bfn.  Coefficient  Atom+Function         Bfn.  Coefficient  Atom+Function  
  ----- ------------  ---------------      ----- ------------  ---------------
   143     18.335343   4 C  s                51     -9.959936   2 C  s         
   235     -9.958348   6 C  s                 5     -9.514267   1 C  s         
   107     -8.717180   3 C  px              199      7.929170   5 C  px        
   245     -7.042852   6 C  px              200      6.779314   5 C  py        
    61      6.481083   2 C  px              108      5.730672   3 C  py        
 
 Vector   41  Occ=0.000000D+00  E= 1.082203D-01
              MO Center= -1.0D-02,  1.6D-01, -9.3D-05, r^2= 2.2D+01
   Bfn.  Coefficient  Atom+Function         Bfn.  Coefficient  Atom+Function  
  ----- ------------  ---------------      ----- ------------  ---------------
    63      3.393599   2 C  pz              247     -3.393728   6 C  pz        
   109     -3.365279   3 C  pz              201      3.365126   5 C  pz        
    60      0.695165   2 C  pz              244     -0.695204   6 C  pz        
   106     -0.635625   3 C  pz              198      0.635611   5 C  pz        
    77     -0.377750   2 C  d  1            215      0.358903   5 C  d  1      
 
 Vector   42  Occ=0.000000D+00  E= 1.089507D-01
              MO Center=  3.0D-02, -4.7D-01,  2.1D-03, r^2= 2.1D+01
   Bfn.  Coefficient  Atom+Function         Bfn.  Coefficient  Atom+Function  
  ----- ------------  ---------------      ----- ------------  ---------------
   155      5.318630   4 C  pz              109     -3.442038   3 C  pz        
   201     -3.442305   5 C  pz               17      2.510084   1 C  pz        
   152      0.984291   4 C  pz              106     -0.604921   3 C  pz        
   198     -0.604979   5 C  pz              167      0.571517   4 C  d -1      
    14      0.505068   1 C  pz               63     -0.473712   2 C  pz        
 
 Vector   43  Occ=0.000000D+00  E= 1.095015D-01
              MO Center=  2.9D-02, -4.6D-01, -1.1D-03, r^2= 2.7D+01
   Bfn.  Coefficient  Atom+Function         Bfn.  Coefficient  Atom+Function  
  ----- ------------  ---------------      ----- ------------  ---------------
   326      7.702219   9 H  s               154      6.997412   4 C  py        
   303     -6.524591   8 H  s               349     -6.525548  10 H  s         
   143     -5.361935   4 C  s               108     -4.344702   3 C  py        
    62     -4.083962   2 C  py              200     -4.082854   5 C  py        
   246     -4.079690   6 C  py                4      3.950519   1 C  s         
 
 Vector   44  Occ=0.000000D+00  E= 1.178133D-01
              MO Center= -4.1D-02,  6.5D-01, -4.3D-04, r^2= 1.4D+01
   Bfn.  Coefficient  Atom+Function         Bfn.  Coefficient  Atom+Function  
  ----- ------------  ---------------      ----- ------------  ---------------
    17      6.875269   1 C  pz               63     -6.028321   2 C  pz        
   247     -6.028172   6 C  pz              109      5.058752   3 C  pz        
   201      5.058591   5 C  pz              155     -4.819772   4 C  pz        
    14      1.232717   1 C  pz               60     -1.020619   2 C  pz        
   244     -1.020587   6 C  pz              106      0.892180   3 C  pz        
 
 Vector   45  Occ=0.000000D+00  E= 1.264243D-01
              MO Center= -1.9D-02,  2.9D-01, -2.5D-05, r^2= 2.5D+01
   Bfn.  Coefficient  Atom+Function         Bfn.  Coefficient  Atom+Function  
  ----- ------------  ---------------      ----- ------------  ---------------
    51      7.551073   2 C  s               235     -7.552196   6 C  s         
   107      7.186064   3 C  px              199      7.114387   5 C  px        
   245     -7.019202   6 C  px               61     -6.915510   2 C  px        
    15      6.491114   1 C  px               97     -6.161953   3 C  s         
   189      6.161198   5 C  s               153     -5.867439   4 C  px        
 
 Vector   46  Occ=0.000000D+00  E= 1.274425D-01
              MO Center= -1.2D-02,  1.9D-01,  1.3D-04, r^2= 2.6D+01
   Bfn.  Coefficient  Atom+Function         Bfn.  Coefficient  Atom+Function  
  ----- ------------  ---------------      ----- ------------  ---------------
   154     -8.021238   4 C  py               16      7.403709   1 C  py        
   108      6.890576   3 C  py               62     -6.571581   2 C  py        
   200      6.573223   5 C  py              246     -6.378466   6 C  py        
   326     -4.043062   9 H  s                 5      3.611423   1 C  s         
   303      3.161875   8 H  s               349      3.163120  10 H  s         
 
 Vector   47  Occ=0.000000D+00  E= 1.609704D-01
              MO Center= -8.5D-03,  1.4D-01,  8.6D-05, r^2= 1.7D+01
   Bfn.  Coefficient  Atom+Function         Bfn.  Coefficient  Atom+Function  
  ----- ------------  ---------------      ----- ------------  ---------------
    17      8.188517   1 C  pz               63     -8.006653   2 C  pz        
   247     -8.006756   6 C  pz              155     -7.854513   4 C  pz        
   109      7.774375   3 C  pz              201      7.774480   5 C  pz        
    60     -1.190079   2 C  pz              106      1.190703   3 C  pz        
   198      1.190733   5 C  pz              244     -1.190102   6 C  pz        
 
 Vector   48  Occ=0.000000D+00  E= 1.660556D-01
              MO Center= -8.9D-02,  1.4D+00,  3.2D-04, r^2= 2.2D+01
   Bfn.  Coefficient  Atom+Function         Bfn.  Coefficient  Atom+Function  
  ----- ------------  ---------------      ----- ------------  ---------------
     5     59.220951   1 C  s                51    -25.996512   2 C  s         
   143     25.918733   4 C  s               235    -25.996507   6 C  s         
    97    -14.407979   3 C  s               189    -14.407035   5 C  s         
   154      7.411476   4 C  py              245      6.807887   6 C  px        
    61     -6.389665   2 C  px              326      6.142299   9 H  s         
 
 Vector   49  Occ=0.000000D+00  E= 1.753846D-01
              MO Center=  2.5D-02, -3.9D-01, -1.8D-04, r^2= 1.1D+01
   Bfn.  Coefficient  Atom+Function         Bfn.  Coefficient  Atom+Function  
  ----- ------------  ---------------      ----- ------------  ---------------
   335      1.102209   9 H  pz              312      1.078481   8 H  pz        
   358      1.078432  10 H  pz              289      0.973597   7 H  pz        
   381      0.973556  11 H  pz               17      0.947611   1 C  pz        
    63     -0.875466   2 C  pz              247     -0.875437   6 C  pz        
   106     -0.844262   3 C  pz              198     -0.844209   5 C  pz        
 
 Vector   50  Occ=0.000000D+00  E= 1.863976D-01
              MO Center=  3.5D-02, -5.6D-01,  1.0D-04, r^2= 1.5D+01
   Bfn.  Coefficient  Atom+Function         Bfn.  Coefficient  Atom+Function  
  ----- ------------  ---------------      ----- ------------  ---------------
     5     15.420336   1 C  s                97     -7.224726   3 C  s         
   189     -7.224583   5 C  s                51     -4.600989   2 C  s         
   235     -4.601739   6 C  s               325      4.366554   9 H  s         
   154      4.019327   4 C  py               62     -3.972021   2 C  py        
   246     -3.752732   6 C  py               50     -3.226191   2 C  s         
 
 Vector   51  Occ=0.000000D+00  E= 1.980379D-01
              MO Center= -3.1D-02,  4.7D-01,  3.6D-04, r^2= 2.3D+01
   Bfn.  Coefficient  Atom+Function         Bfn.  Coefficient  Atom+Function  
  ----- ------------  ---------------      ----- ------------  ---------------
    51     44.677058   2 C  s               235    -44.608477   6 C  s         
    97     25.148733   3 C  s               189    -25.167788   5 C  s         
    15     18.547717   1 C  px              153     16.973548   4 C  px        
   302    -14.012542   8 H  s               348     14.018513  10 H  s         
   200      9.181050   5 C  py              108     -8.496121   3 C  py        
 
 Vector   52  Occ=0.000000D+00  E= 1.984417D-01
              MO Center=  4.7D-02, -7.3D-01, -5.1D-04, r^2= 2.3D+01
   Bfn.  Coefficient  Atom+Function         Bfn.  Coefficient  Atom+Function  
  ----- ------------  ---------------      ----- ------------  ---------------
   143     61.312353   4 C  s                51    -34.496453   2 C  s         
   235    -34.585511   6 C  s               325    -16.885231   9 H  s         
    62     14.727173   2 C  py              246     14.449509   6 C  py        
   200     13.790899   5 C  py              108     12.564994   3 C  py        
     5    -11.583224   1 C  s               279     11.182332   7 H  s         
 
 Vector   53  Occ=0.000000D+00  E= 2.153867D-01
              MO Center=  8.9D-02, -1.4D+00, -3.2D-05, r^2= 1.5D+01
   Bfn.  Coefficient  Atom+Function         Bfn.  Coefficient  Atom+Function  
  ----- ------------  ---------------      ----- ------------  ---------------
    97     13.885435   3 C  s               189    -13.885225   5 C  s         
    96      6.580999   3 C  s               188     -6.580765   5 C  s         
   153      6.332053   4 C  px              279     -5.118368   7 H  s         
   371      5.117470  11 H  s               303      4.754534   8 H  s         
   349     -4.754152  10 H  s               246     -4.444016   6 C  py        
 
 Vector   54  Occ=0.000000D+00  E= 2.182634D-01
              MO Center=  1.8D-02, -2.8D-01, -1.8D-04, r^2= 1.5D+01
   Bfn.  Coefficient  Atom+Function         Bfn.  Coefficient  Atom+Function  
  ----- ------------  ---------------      ----- ------------  ---------------
   143     25.815645   4 C  s                51    -17.801093   2 C  s         
   235    -17.808456   6 C  s                 5     15.897269   1 C  s         
    16     -6.434357   1 C  py              325     -6.075374   9 H  s         
    62      4.838152   2 C  py              246      4.718985   6 C  py        
   279      3.721462   7 H  s               371      3.722037  11 H  s         
 
 Vector   55  Occ=0.000000D+00  E= 2.193254D-01
              MO Center=  4.9D-03, -7.7D-02,  1.1D-03, r^2= 1.5D+01
   Bfn.  Coefficient  Atom+Function         Bfn.  Coefficient  Atom+Function  
  ----- ------------  ---------------      ----- ------------  ---------------
    51     19.980113   2 C  s               235    -19.974192   6 C  s         
   108     -8.462509   3 C  py              200      8.097120   5 C  py        
    15      7.668373   1 C  px              302     -6.999266   8 H  s         
   348      6.999355  10 H  s               153      6.307509   4 C  px        
   246     -4.105372   6 C  py               62      3.972361   2 C  py        
 
 Vector   56  Occ=0.000000D+00  E= 2.301107D-01
              MO Center= -1.8D-02,  2.9D-01,  1.8D-03, r^2= 1.8D+01
   Bfn.  Coefficient  Atom+Function         Bfn.  Coefficient  Atom+Function  
  ----- ------------  ---------------      ----- ------------  ---------------
   199      4.908588   5 C  px              107      4.651102   3 C  px        
   153     -3.499563   4 C  px               50     -3.301663   2 C  s         
   234      3.301365   6 C  s               303      3.149432   8 H  s         
   349     -3.149036  10 H  s                15     -2.558775   1 C  px        
   108      2.350836   3 C  py               59      1.910764   2 C  py        
 
 Vector   57  Occ=0.000000D+00  E= 2.312217D-01
              MO Center= -3.6D-05,  7.9D-04, -3.7D-03, r^2= 1.6D+01
   Bfn.  Coefficient  Atom+Function         Bfn.  Coefficient  Atom+Function  
  ----- ------------  ---------------      ----- ------------  ---------------
   106      2.141925   3 C  pz              198     -2.141939   5 C  pz        
    60      2.044775   2 C  pz              244     -2.044738   6 C  pz        
   312     -1.820099   8 H  pz              358      1.820143  10 H  pz        
   289     -1.722374   7 H  pz              381      1.722335  11 H  pz        
   169     -1.379189   4 C  d  1             31     -1.243609   1 C  d  1      
 
 Vector   58  Occ=0.000000D+00  E= 2.354351D-01
              MO Center= -1.3D-02,  2.1D-01,  4.8D-04, r^2= 1.6D+01
   Bfn.  Coefficient  Atom+Function         Bfn.  Coefficient  Atom+Function  
  ----- ------------  ---------------      ----- ------------  ---------------
   143     14.798886   4 C  s                51    -10.387395   2 C  s         
   235    -10.381568   6 C  s               107     -8.154488   3 C  px        
   199      7.724523   5 C  px               61      5.422137   2 C  px        
   245     -5.297259   6 C  px              303     -4.404133   8 H  s         
   349     -4.405094  10 H  s                 5      3.975732   1 C  s         
 
 Vector   59  Occ=0.000000D+00  E= 2.365688D-01
              MO Center= -4.6D-03,  7.5D-02,  9.7D-04, r^2= 1.7D+01
   Bfn.  Coefficient  Atom+Function         Bfn.  Coefficient  Atom+Function  
  ----- ------------  ---------------      ----- ------------  ---------------
    97    -33.163701   3 C  s               189     33.164089   5 C  s         
    51     31.468253   2 C  s               235    -31.471094   6 C  s         
    96    -14.439845   3 C  s               188     14.439356   5 C  s         
   279     10.751257   7 H  s               371    -10.750531  11 H  s         
   302    -10.587294   8 H  s               348     10.587178  10 H  s         
 
 Vector   60  Occ=0.000000D+00  E= 2.433798D-01
              MO Center=  3.0D-03, -4.7D-02, -4.6D-04, r^2= 1.5D+01
   Bfn.  Coefficient  Atom+Function         Bfn.  Coefficient  Atom+Function  
  ----- ------------  ---------------      ----- ------------  ---------------
   152      3.415912   4 C  pz               14     -3.024674   1 C  pz        
   289      2.165566   7 H  pz              381      2.165580  11 H  pz        
   335     -2.123598   9 H  pz              261      1.999322   6 C  d  1      
    77     -1.983797   2 C  d  1             63     -1.600194   2 C  pz        
   247     -1.600125   6 C  pz              155      1.366856   4 C  pz        
 
 Vector   61  Occ=0.000000D+00  E= 2.596226D-01
              MO Center=  3.9D-02, -6.2D-01,  6.3D-05, r^2= 1.7D+01
   Bfn.  Coefficient  Atom+Function         Bfn.  Coefficient  Atom+Function  
  ----- ------------  ---------------      ----- ------------  ---------------
     5      9.077722   1 C  s               108     -6.724316   3 C  py        
   200     -6.121036   5 C  py              303     -5.264395   8 H  s         
   349     -5.263479  10 H  s               199      5.182186   5 C  px        
   197     -4.845447   5 C  py              105     -4.751470   3 C  py        
   154      4.635721   4 C  py              143     -4.439153   4 C  s         
 
 Vector   62  Occ=0.000000D+00  E= 2.621211D-01
              MO Center=  6.7D-02, -1.1D+00, -5.5D-05, r^2= 1.7D+01
   Bfn.  Coefficient  Atom+Function         Bfn.  Coefficient  Atom+Function  
  ----- ------------  ---------------      ----- ------------  ---------------
     5     18.872400   1 C  s               143     15.277694   4 C  s         
   154     15.318413   4 C  py               51    -14.565797   2 C  s         
   235    -14.566706   6 C  s               326      9.143806   9 H  s         
     4      6.090013   1 C  s               108     -4.673511   3 C  py        
    97     -4.604386   3 C  s               189     -4.603304   5 C  s         
 
 Vector   63  Occ=0.000000D+00  E= 2.676395D-01
              MO Center= -2.7D-02,  4.3D-01,  5.9D-05, r^2= 2.0D+01
   Bfn.  Coefficient  Atom+Function         Bfn.  Coefficient  Atom+Function  
  ----- ------------  ---------------      ----- ------------  ---------------
    51     20.192243   2 C  s               235    -20.191846   6 C  s         
    97    -11.841751   3 C  s               189     11.842681   5 C  s         
    61     11.046802   2 C  px              245     10.308484   6 C  px        
    96     -8.788333   3 C  s               188      8.788052   5 C  s         
   279      8.745819   7 H  s               371     -8.746013  11 H  s         
 
 Vector   64  Occ=0.000000D+00  E= 2.746847D-01
              MO Center= -1.9D-03,  3.1D-02,  6.7D-05, r^2= 1.4D+01
   Bfn.  Coefficient  Atom+Function         Bfn.  Coefficient  Atom+Function  
  ----- ------------  ---------------      ----- ------------  ---------------
   143      8.832557   4 C  s                 5      8.496040   1 C  s         
   154      5.642652   4 C  py              279     -5.664120   7 H  s         
   371     -5.664875  11 H  s               302     -4.642795   8 H  s         
   348     -4.641899  10 H  s               325     -4.372096   9 H  s         
    16     -3.984723   1 C  py              246      3.233764   6 C  py        
 
 Vector   65  Occ=0.000000D+00  E= 2.828914D-01
              MO Center= -1.2D-02,  1.8D-01, -1.7D-05, r^2= 1.6D+01
   Bfn.  Coefficient  Atom+Function         Bfn.  Coefficient  Atom+Function  
  ----- ------------  ---------------      ----- ------------  ---------------
    12      9.537124   1 C  px               97      9.032306   3 C  s         
   189     -9.032472   5 C  s                51     -8.187425   2 C  s         
   235      8.186956   6 C  s               302      8.123840   8 H  s         
   348     -8.123409  10 H  s               199      7.718991   5 C  px        
   107      7.248288   3 C  px              150      6.179929   4 C  px        
 
 Vector   66  Occ=0.000000D+00  E= 2.954833D-01
              MO Center= -3.3D-03,  5.2D-02, -1.6D-05, r^2= 1.6D+01
   Bfn.  Coefficient  Atom+Function         Bfn.  Coefficient  Atom+Function  
  ----- ------------  ---------------      ----- ------------  ---------------
    63      3.202374   2 C  pz              109     -3.189835   3 C  pz        
   201      3.189435   5 C  pz              247     -3.202161   6 C  pz        
   289     -2.281821   7 H  pz              381      2.281841  11 H  pz        
    60      2.255320   2 C  pz              244     -2.255345   6 C  pz        
   312      2.261769   8 H  pz              358     -2.261660  10 H  pz        
 
 Vector   67  Occ=0.000000D+00  E= 2.962678D-01
              MO Center= -6.0D-02,  9.5D-01,  4.1D-04, r^2= 1.4D+01
   Bfn.  Coefficient  Atom+Function         Bfn.  Coefficient  Atom+Function  
  ----- ------------  ---------------      ----- ------------  ---------------
     4     10.412152   1 C  s                59     -5.728721   2 C  py        
   243     -5.620285   6 C  py                5      5.569613   1 C  s         
   105     -5.515119   3 C  py              197     -5.122255   5 C  py        
    16      4.246611   1 C  py              279     -4.247778   7 H  s         
   371     -4.247590  11 H  s               325     -3.946889   9 H  s         
 
 Vector   68  Occ=0.000000D+00  E= 3.080157D-01
              MO Center=  1.7D-02, -2.7D-01, -4.6D-04, r^2= 1.5D+01
   Bfn.  Coefficient  Atom+Function         Bfn.  Coefficient  Atom+Function  
  ----- ------------  ---------------      ----- ------------  ---------------
   155      5.180735   4 C  pz               14      4.376136   1 C  pz        
   109     -3.741050   3 C  pz              201     -3.741207   5 C  pz        
   335     -2.717958   9 H  pz               60     -2.058279   2 C  pz        
   244     -2.058161   6 C  pz               17      1.840701   1 C  pz        
   152      1.845934   4 C  pz               29     -1.727246   1 C  d -1      
 
 Vector   69  Occ=0.000000D+00  E= 3.150900D-01
              MO Center=  4.9D-03, -7.8D-02,  1.9D-05, r^2= 9.1D+00
   Bfn.  Coefficient  Atom+Function         Bfn.  Coefficient  Atom+Function  
  ----- ------------  ---------------      ----- ------------  ---------------
   261      1.240313   6 C  d  1             77      1.121028   2 C  d  1      
   169     -1.105570   4 C  d  1             75     -1.019567   2 C  d -1      
   259      0.870844   6 C  d -1            289     -0.708421   7 H  pz        
   381      0.708424  11 H  pz               31      0.609384   1 C  d  1      
    60     -0.322422   2 C  pz              244      0.322628   6 C  pz        
 
 Vector   70  Occ=0.000000D+00  E= 3.284554D-01
              MO Center=  3.9D-02, -6.1D-01,  7.9D-05, r^2= 1.5D+01
   Bfn.  Coefficient  Atom+Function         Bfn.  Coefficient  Atom+Function  
  ----- ------------  ---------------      ----- ------------  ---------------
   142     12.317537   4 C  s                96      8.665635   3 C  s         
   188      8.665839   5 C  s               151     -6.786591   4 C  py        
   325     -5.769353   9 H  s                 4     -5.096752   1 C  s         
   334     -5.003404   9 H  py                5      4.799087   1 C  s         
   302     -4.369084   8 H  s               348     -4.368531  10 H  s         
 
 Vector   71  Occ=0.000000D+00  E= 3.347803D-01
              MO Center= -1.5D-03,  2.4D-02,  1.9D-04, r^2= 7.7D+00
   Bfn.  Coefficient  Atom+Function         Bfn.  Coefficient  Atom+Function  
  ----- ------------  ---------------      ----- ------------  ---------------
   289      2.020614   7 H  pz              381      2.020749  11 H  pz        
   335      1.866681   9 H  pz               14     -1.751596   1 C  pz        
   155     -1.681964   4 C  pz               63     -1.552967   2 C  pz        
   247     -1.552991   6 C  pz               77     -1.505116   2 C  d  1      
   261      1.406390   6 C  d  1            106     -1.306754   3 C  pz        
 
 Vector   72  Occ=0.000000D+00  E= 3.433340D-01
              MO Center=  2.4D-02, -3.8D-01, -4.5D-03, r^2= 1.2D+01
   Bfn.  Coefficient  Atom+Function         Bfn.  Coefficient  Atom+Function  
  ----- ------------  ---------------      ----- ------------  ---------------
   169      3.287834   4 C  d  1             31      2.697460   1 C  d  1      
   312     -2.481261   8 H  pz              358      2.480915  10 H  pz        
   123      2.188455   3 C  d  1            215      2.146438   5 C  d  1      
   106     -1.792065   3 C  pz              198      1.792106   5 C  pz        
   289     -1.436655   7 H  pz              381      1.436587  11 H  pz        
 
 Vector   73  Occ=0.000000D+00  E= 3.449872D-01
              MO Center= -3.5D-02,  5.6D-01, -2.2D-03, r^2= 1.2D+01
   Bfn.  Coefficient  Atom+Function         Bfn.  Coefficient  Atom+Function  
  ----- ------------  ---------------      ----- ------------  ---------------
   143     23.729312   4 C  s               325    -13.081179   9 H  s         
   279     11.978132   7 H  s               371     11.980024  11 H  s         
    51    -11.830486   2 C  s               235    -11.836081   6 C  s         
     5     -7.657425   1 C  s               197     -6.916929   5 C  py        
   105     -6.794857   3 C  py              243     -6.014564   6 C  py        
 
 Vector   74  Occ=0.000000D+00  E= 3.477684D-01
              MO Center=  1.0D-02, -1.6D-01,  4.1D-03, r^2= 1.2D+01
   Bfn.  Coefficient  Atom+Function         Bfn.  Coefficient  Atom+Function  
  ----- ------------  ---------------      ----- ------------  ---------------
    51     21.246137   2 C  s               235    -21.241216   6 C  s         
   302    -11.982951   8 H  s               348     11.984849  10 H  s         
    97     10.912777   3 C  s               189    -10.914730   5 C  s         
   279     -9.738276   7 H  s               371      9.733056  11 H  s         
    12     -8.123813   1 C  px              150     -7.059599   4 C  px        
 
 Vector   75  Occ=0.000000D+00  E= 3.480767D-01
              MO Center=  3.2D-02, -5.1D-01,  3.2D-03, r^2= 1.3D+01
   Bfn.  Coefficient  Atom+Function         Bfn.  Coefficient  Atom+Function  
  ----- ------------  ---------------      ----- ------------  ---------------
   155     -3.993042   4 C  pz               17      3.806009   1 C  pz        
   109      3.585517   3 C  pz              201      3.585639   5 C  pz        
    63     -3.479354   2 C  pz              247     -3.479424   6 C  pz        
   152     -3.025086   4 C  pz              213     -2.302498   5 C  d -1      
   289      2.269242   7 H  pz              381      2.269219  11 H  pz        
 
 Vector   76  Occ=0.000000D+00  E= 3.527930D-01
              MO Center=  3.4D-02, -5.3D-01, -1.8D-04, r^2= 1.4D+01
   Bfn.  Coefficient  Atom+Function         Bfn.  Coefficient  Atom+Function  
  ----- ------------  ---------------      ----- ------------  ---------------
    17      6.368637   1 C  pz               63     -5.843904   2 C  pz        
   247     -5.843960   6 C  pz              109      5.113816   3 C  pz        
   201      5.113842   5 C  pz              155     -4.832318   4 C  pz        
   335      3.967742   9 H  pz               14      3.785031   1 C  pz        
   167      3.090986   4 C  d -1             60     -2.681976   2 C  pz        
 
 Vector   77  Occ=0.000000D+00  E= 3.546893D-01
              MO Center= -2.0D-02,  3.2D-01, -7.0D-04, r^2= 1.5D+01
   Bfn.  Coefficient  Atom+Function         Bfn.  Coefficient  Atom+Function  
  ----- ------------  ---------------      ----- ------------  ---------------
     5     31.546396   1 C  s               143     16.074877   4 C  s         
    51    -15.970010   2 C  s               235    -15.968972   6 C  s         
   151    -11.222843   4 C  py              196     -7.724244   5 C  px        
    50      7.482257   2 C  s               234      7.482112   6 C  s         
    13      7.288499   1 C  py              104      7.284336   3 C  px        
 
 Vector   78  Occ=0.000000D+00  E= 3.598627D-01
              MO Center= -4.7D-02,  7.5D-01,  2.4D-04, r^2= 1.3D+01
   Bfn.  Coefficient  Atom+Function         Bfn.  Coefficient  Atom+Function  
  ----- ------------  ---------------      ----- ------------  ---------------
   289      3.406752   7 H  pz              381     -3.406837  11 H  pz        
    60      3.154483   2 C  pz              244     -3.154489   6 C  pz        
    77     -3.093467   2 C  d  1            121     -3.073200   3 C  d -1      
   259      3.009756   6 C  d -1            213      2.770309   5 C  d -1      
   312     -2.765841   8 H  pz              358      2.765737  10 H  pz        
 
 Vector   79  Occ=0.000000D+00  E= 3.688080D-01
              MO Center=  3.6D-02, -5.7D-01, -1.5D-04, r^2= 1.3D+01
   Bfn.  Coefficient  Atom+Function         Bfn.  Coefficient  Atom+Function  
  ----- ------------  ---------------      ----- ------------  ---------------
    96     10.796365   3 C  s               188     10.795204   5 C  s         
   104     -8.413631   3 C  px              196      8.397198   5 C  px        
     5      7.655997   1 C  s               142     -7.651802   4 C  s         
   212      5.402490   5 C  d -2            258      5.296276   6 C  d -2      
   120     -5.218920   3 C  d -2            242     -5.094653   6 C  px        
 
 Vector   80  Occ=0.000000D+00  E= 3.719356D-01
              MO Center=  2.0D-02, -3.1D-01, -2.2D-04, r^2= 1.3D+01
   Bfn.  Coefficient  Atom+Function         Bfn.  Coefficient  Atom+Function  
  ----- ------------  ---------------      ----- ------------  ---------------
    97      9.932617   3 C  s               189     -9.931239   5 C  s         
    50      8.928906   2 C  s               234     -8.928363   6 C  s         
   279     -5.523370   7 H  s               371      5.525869  11 H  s         
   357      5.248193  10 H  py              311     -5.129002   8 H  py        
   212     -4.889899   5 C  d -2             51     -4.786887   2 C  s         
 
 Vector   81  Occ=0.000000D+00  E= 3.819104D-01
              MO Center=  3.6D-02, -5.6D-01, -4.7D-06, r^2= 1.6D+01
   Bfn.  Coefficient  Atom+Function         Bfn.  Coefficient  Atom+Function  
  ----- ------------  ---------------      ----- ------------  ---------------
   166      9.015418   4 C  d -2            333      7.095672   9 H  px        
   150     -6.605250   4 C  px              216     -6.519777   5 C  d  2      
   124      6.091384   3 C  d  2            279      5.879730   7 H  s         
   371     -5.880053  11 H  s               310      5.100703   8 H  px        
   356      5.036628  10 H  px               96     -4.826554   3 C  s         
 
 Vector   82  Occ=0.000000D+00  E= 3.931281D-01
              MO Center= -2.9D-02,  4.6D-01,  2.0D-04, r^2= 1.5D+01
   Bfn.  Coefficient  Atom+Function         Bfn.  Coefficient  Atom+Function  
  ----- ------------  ---------------      ----- ------------  ---------------
    12     12.226279   1 C  px               51    -11.232941   2 C  s         
   235     11.234282   6 C  s                78     -9.049430   2 C  d  2      
   262      8.728656   6 C  d  2             15     -6.874234   1 C  px        
   216      6.689487   5 C  d  2            124     -5.830822   3 C  d  2      
   153     -5.848589   4 C  px              379     -5.838154  11 H  px        
 
 Vector   83  Occ=0.000000D+00  E= 3.960003D-01
              MO Center= -5.2D-02,  8.3D-01,  2.0D-04, r^2= 1.2D+01
   Bfn.  Coefficient  Atom+Function         Bfn.  Coefficient  Atom+Function  
  ----- ------------  ---------------      ----- ------------  ---------------
   152     -7.523735   4 C  pz              106      7.335968   3 C  pz        
   198      7.336116   5 C  pz               60     -6.470950   2 C  pz        
   244     -6.471016   6 C  pz              167     -6.343272   4 C  d -1      
   215      5.113705   5 C  d  1            123     -4.708700   3 C  d  1      
    14      4.554041   1 C  pz              259      4.015294   6 C  d -1      
 
 Vector   84  Occ=0.000000D+00  E= 4.017624D-01
              MO Center= -3.1D-02,  4.9D-01, -7.3D-04, r^2= 1.5D+01
   Bfn.  Coefficient  Atom+Function         Bfn.  Coefficient  Atom+Function  
  ----- ------------  ---------------      ----- ------------  ---------------
     5     50.487196   1 C  s                51    -19.275237   2 C  s         
   235    -19.271538   6 C  s                97    -17.115216   3 C  s         
   189    -17.112604   5 C  s               143     10.936011   4 C  s         
   142    -10.337994   4 C  s                 4     -9.333194   1 C  s         
   325      8.057758   9 H  s                50     -7.822650   2 C  s         
 
 Vector   85  Occ=0.000000D+00  E= 4.051882D-01
              MO Center= -7.0D-03,  1.1D-01, -4.9D-05, r^2= 1.3D+01
   Bfn.  Coefficient  Atom+Function         Bfn.  Coefficient  Atom+Function  
  ----- ------------  ---------------      ----- ------------  ---------------
[...]
     Occ.   20 alpha a   ---  Virt.   29 alpha a    0.06344 X
     Occ.   21 alpha a   ---  Virt.   25 alpha a    0.09413 X
     Occ.   21 alpha a   ---  Virt.   27 alpha a   -0.87747 X
     Occ.   21 alpha a   ---  Virt.   38 alpha a    0.12079 X
     Occ.   13 beta  a   ---  Virt.   21 beta  a   -0.06524 X
     Occ.   15 beta  a   ---  Virt.   21 beta  a   -0.12000 X
     Occ.   19 beta  a   ---  Virt.   24 beta  a   -0.25129 X
     Occ.   19 beta  a   ---  Virt.   29 beta  a    0.05842 X
     Occ.   20 beta  a   ---  Virt.   22 beta  a    0.16725 X
  ----------------------------------------------------------------------------
  Root  27         a              0.252150828 a.u.                6.8614 eV 
  <S2> =   1.6600
  ----------------------------------------------------------------------------
     Transition Moments    X  0.00001   Y -0.00000   Z -0.24631
     Transition Moments   XX -0.00005  XY  0.00009  XZ  0.01061
     Transition Moments   YY -0.00013  YZ -0.16698  ZZ -0.00003
     Dipole Oscillator Strength                    0.0101986342
     Electric Quadrupole                           0.0000000024
     Magnetic Dipole                               0.0000000312
     Total Oscillator Strength                     0.0101986678
 
     Occ.   19 alpha a   ---  Virt.   26 alpha a   -0.98304 X
     Occ.   19 alpha a   ---  Virt.   35 alpha a    0.07114 X
     Occ.   19 alpha a   ---  Virt.   36 alpha a    0.07370 X
     Occ.   20 alpha a   ---  Virt.   25 alpha a   -0.10885 X
     Occ.   20 beta  a   ---  Virt.   26 beta  a   -0.05102 X
  ----------------------------------------------------------------------------
  Root  28         a              0.252497579 a.u.                6.8708 eV 
  <S2> =   1.8877
  ----------------------------------------------------------------------------
     Transition Moments    X  0.00006   Y  0.00001   Z  0.00004
     Transition Moments   XX  0.00000  XY  0.00000  XZ  0.39394
     Transition Moments   YY  0.00007  YZ  0.02482  ZZ  0.00002
     Dipole Oscillator Strength                    0.0000000010
     Electric Quadrupole                           0.0000000134
     Magnetic Dipole                               0.0000000095
     Total Oscillator Strength                     0.0000000238
 
     Occ.   19 alpha a   ---  Virt.   25 alpha a   -0.26585 X
     Occ.   20 alpha a   ---  Virt.   26 alpha a   -0.95552 X
     Occ.   20 alpha a   ---  Virt.   35 alpha a    0.06100 X
     Occ.   20 alpha a   ---  Virt.   36 alpha a    0.06505 X
     Occ.   19 beta  a   ---  Virt.   26 beta  a    0.06410 X
  ----------------------------------------------------------------------------
  Root  29         a              0.253841381 a.u.                6.9074 eV 
  <S2> =   1.6195
  ----------------------------------------------------------------------------
     Transition Moments    X  0.00003   Y -0.00002   Z -0.00000
     Transition Moments   XX -0.00002  XY  0.00004  XZ -0.49412
     Transition Moments   YY -0.00009  YZ -0.03114  ZZ -0.00003
     Dipole Oscillator Strength                    0.0000000002
     Electric Quadrupole                           0.0000000214
     Magnetic Dipole                               0.0000000110
     Total Oscillator Strength                     0.0000000326
 
     Occ.   20 alpha a   ---  Virt.   26 alpha a    0.06893 X
     Occ.   19 beta  a   ---  Virt.   26 beta  a    0.98499 X
     Occ.   19 beta  a   ---  Virt.   35 beta  a   -0.05777 X
     Occ.   19 beta  a   ---  Virt.   36 beta  a   -0.07395 X
     Occ.   20 beta  a   ---  Virt.   25 beta  a    0.09935 X
  ----------------------------------------------------------------------------
  Root  30         a              0.254738132 a.u.                6.9318 eV 
  <S2> =   0.7721
  ----------------------------------------------------------------------------
     Transition Moments    X -1.46278   Y -0.09235   Z  0.00003
     Transition Moments   XX -0.02839  XY  0.22361  XZ -0.00003
     Transition Moments   YY  0.02817  YZ  0.00002  ZZ -0.00003
     Dipole Oscillator Strength                    0.3648276657
     Electric Quadrupole                           0.0000000045
     Magnetic Dipole                               0.0000000360
     Total Oscillator Strength                     0.3648277062
 
     Occ.   19 alpha a   ---  Virt.   22 alpha a   -0.37047 X
     Occ.   19 alpha a   ---  Virt.   22 alpha a    0.05151 Y
     Occ.   20 alpha a   ---  Virt.   23 alpha a    0.41226 X
     Occ.   20 alpha a   ---  Virt.   29 alpha a   -0.13655 X
     Occ.   21 alpha a   ---  Virt.   25 alpha a    0.08262 X
     Occ.   21 alpha a   ---  Virt.   27 alpha a   -0.44624 X
     Occ.   13 beta  a   ---  Virt.   21 beta  a    0.12633 X
     Occ.   15 beta  a   ---  Virt.   21 beta  a    0.26548 X
     Occ.   19 beta  a   ---  Virt.   24 beta  a    0.48177 X
     Occ.   19 beta  a   ---  Virt.   29 beta  a   -0.13537 X
     Occ.   20 beta  a   ---  Virt.   22 beta  a   -0.33971 X
     Occ.   20 beta  a   ---  Virt.   22 beta  a    0.05446 Y
  ----------------------------------------------------------------------------
  Root  31         a              0.255798981 a.u.                6.9606 eV 
  <S2> =   0.8016
  ----------------------------------------------------------------------------
     Transition Moments    X  0.04109   Y -0.64917   Z -0.00000
     Transition Moments   XX -0.64541  XY  0.07840  XZ  0.00002
     Transition Moments   YY -1.88437  YZ -0.00003  ZZ -0.14418
     Dipole Oscillator Strength                    0.0721549719
     Electric Quadrupole                           0.0000000721
     Magnetic Dipole                               0.0000000000
     Total Oscillator Strength                     0.0721550440
 
     Occ.   19 alpha a   ---  Virt.   23 alpha a    0.10978 X
     Occ.   20 alpha a   ---  Virt.   22 alpha a    0.11655 X
     Occ.   21 alpha a   ---  Virt.   26 alpha a    0.18553 X
     Occ.   21 alpha a   ---  Virt.   28 alpha a   -0.90712 X
     Occ.   21 alpha a   ---  Virt.   30 alpha a   -0.12896 X
     Occ.   21 alpha a   ---  Virt.   31 alpha a   -0.16281 X
     Occ.   21 alpha a   ---  Virt.   48 alpha a    0.05671 X
     Occ.   16 beta  a   ---  Virt.   21 beta  a    0.19229 X
     Occ.   19 beta  a   ---  Virt.   22 beta  a    0.11125 X
     Occ.   20 beta  a   ---  Virt.   24 beta  a    0.10073 X
  ----------------------------------------------------------------------------
  Root  32         a              0.261186180 a.u.                7.1072 eV 
  <S2> =   0.8004
  ----------------------------------------------------------------------------
     Transition Moments    X -0.00001   Y  0.00002   Z -0.09583
     Transition Moments   XX  0.00000  XY  0.00000  XZ  0.04440
     Transition Moments   YY  0.00004  YZ -0.70486  ZZ  0.00000
     Dipole Oscillator Strength                    0.0015990352
     Electric Quadrupole                           0.0000000473
     Magnetic Dipole                               0.0000000329
     Total Oscillator Strength                     0.0015991154
 
     Occ.   21 alpha a   ---  Virt.   29 alpha a    0.97946 X
     Occ.   21 alpha a   ---  Virt.   33 alpha a    0.18024 X
  ----------------------------------------------------------------------------
  Root  33         a              0.265578214 a.u.                7.2268 eV 
  <S2> =   1.7809
  ----------------------------------------------------------------------------
     Transition Moments    X -0.00001   Y -0.00001   Z -0.00000
     Transition Moments   XX  0.00006  XY -0.00002  XZ -0.54603
     Transition Moments   YY  0.00003  YZ -0.03440  ZZ  0.00004
     Dipole Oscillator Strength                    0.0000000000
     Electric Quadrupole                           0.0000000299
     Magnetic Dipole                               0.0000000006
     Total Oscillator Strength                     0.0000000304
 
     Occ.   20 beta  a   ---  Virt.   27 beta  a   -0.99103 X
     Occ.   20 beta  a   ---  Virt.   38 beta  a    0.09653 X
  ----------------------------------------------------------------------------
  Root  34         a              0.267396109 a.u.                7.2762 eV 
  <S2> =   0.8235
  ----------------------------------------------------------------------------
     Transition Moments    X  0.07673   Y -1.21619   Z  0.00000
     Transition Moments   XX  0.05329  XY -0.04075  XZ  0.00001
     Transition Moments   YY  0.69696  YZ  0.00006  ZZ  0.05395
     Dipole Oscillator Strength                    0.2647223687
     Electric Quadrupole                           0.0000000142
     Magnetic Dipole                               0.0000000000
     Total Oscillator Strength                     0.2647223829
 
     Occ.   17 alpha a   ---  Virt.   23 alpha a   -0.08841 X
     Occ.   19 alpha a   ---  Virt.   23 alpha a    0.30928 X
     Occ.   19 alpha a   ---  Virt.   29 alpha a    0.16320 X
     Occ.   20 alpha a   ---  Virt.   22 alpha a    0.22367 X
     Occ.   21 alpha a   ---  Virt.   28 alpha a    0.30927 X
     Occ.   21 alpha a   ---  Virt.   30 alpha a   -0.40306 X
     Occ.   21 alpha a   ---  Virt.   31 alpha a    0.07584 X
     Occ.   14 beta  a   ---  Virt.   21 beta  a   -0.09083 X
     Occ.   16 beta  a   ---  Virt.   21 beta  a    0.50480 X
     Occ.   19 beta  a   ---  Virt.   22 beta  a    0.22457 X
     Occ.   20 beta  a   ---  Virt.   24 beta  a    0.31185 X
     Occ.   20 beta  a   ---  Virt.   29 beta  a    0.35163 X
  ----------------------------------------------------------------------------
  Root  35         a              0.270672563 a.u.                7.3654 eV 
  <S2> =   2.7049
  ----------------------------------------------------------------------------
     Transition Moments    X  0.00000   Y  0.00001   Z  0.00937
     Transition Moments   XX -0.00001  XY  0.00001  XZ -0.00930
     Transition Moments   YY -0.00002  YZ  0.14816  ZZ  0.00001
     Dipole Oscillator Strength                    0.0000158292
     Electric Quadrupole                           0.0000000023
     Magnetic Dipole                               0.0000000000
     Total Oscillator Strength                     0.0000158315
 
     Occ.   20 alpha a   ---  Virt.   27 alpha a   -0.79756 X
     Occ.   20 alpha a   ---  Virt.   38 alpha a    0.08796 X
     Occ.   19 beta  a   ---  Virt.   27 beta  a    0.57748 X
     Occ.   19 beta  a   ---  Virt.   38 beta  a   -0.06826 X
     Occ.   20 beta  a   ---  Virt.   30 beta  a    0.05905 X
  ----------------------------------------------------------------------------
  Root  36         a              0.271251446 a.u.                7.3811 eV 
  <S2> =   2.7405
  ----------------------------------------------------------------------------
     Transition Moments    X  0.05052   Y  0.00318   Z -0.00000
     Transition Moments   XX  0.00364  XY -0.02817  XZ  0.00001
     Transition Moments   YY -0.00363  YZ -0.00003  ZZ  0.00002
     Dipole Oscillator Strength                    0.0004633860
     Electric Quadrupole                           0.0000000001
     Magnetic Dipole                               0.0000000019
     Total Oscillator Strength                     0.0004633879
 
     Occ.   17 alpha a   ---  Virt.   22 alpha a    0.59708 X
     Occ.   17 alpha a   ---  Virt.   41 alpha a   -0.05238 X
     Occ.   19 alpha a   ---  Virt.   32 alpha a   -0.08347 X
     Occ.   20 alpha a   ---  Virt.   29 alpha a    0.16799 X
     Occ.   20 alpha a   ---  Virt.   44 alpha a   -0.22761 X
     Occ.   20 alpha a   ---  Virt.   47 alpha a    0.17429 X
     Occ.   17 beta  a   ---  Virt.   22 beta  a   -0.64375 X
     Occ.   17 beta  a   ---  Virt.   41 beta  a    0.05430 X
     Occ.   19 beta  a   ---  Virt.   29 beta  a   -0.10399 X
     Occ.   19 beta  a   ---  Virt.   44 beta  a    0.20081 X
     Occ.   19 beta  a   ---  Virt.   47 beta  a   -0.16680 X
     Occ.   20 beta  a   ---  Virt.   31 beta  a    0.10115 X
  ----------------------------------------------------------------------------
  Root  37         a              0.271671714 a.u.                7.3926 eV 
  <S2> =   0.8174
  ----------------------------------------------------------------------------
     Transition Moments    X -0.00001   Y -0.00001   Z -0.02322
     Transition Moments   XX  0.00003  XY -0.00006  XZ  0.05388
     Transition Moments   YY  0.00005  YZ -0.85497  ZZ -0.00001
     Dipole Oscillator Strength                    0.0000976375
     Electric Quadrupole                           0.0000000784
     Magnetic Dipole                               0.0000000041
     Total Oscillator Strength                     0.0000977200
 
     Occ.   20 alpha a   ---  Virt.   27 alpha a    0.57910 X
     Occ.   19 beta  a   ---  Virt.   27 beta  a    0.80219 X
     Occ.   19 beta  a   ---  Virt.   38 beta  a   -0.07505 X
     Occ.   20 beta  a   ---  Virt.   28 beta  a   -0.08843 X
  ----------------------------------------------------------------------------
  Root  38         a              0.272097040 a.u.                7.4041 eV 
  <S2> =   1.0825
  ----------------------------------------------------------------------------
     Transition Moments    X  0.02918   Y -0.46277   Z  0.00000
     Transition Moments   XX  1.02663  XY  0.11294  XZ -0.00001
     Transition Moments   YY -0.75865  YZ  0.00010  ZZ  0.23583
     Dipole Oscillator Strength                    0.0390011839
     Electric Quadrupole                           0.0000000872
     Magnetic Dipole                               0.0000000000
     Total Oscillator Strength                     0.0390012712
 
     Occ.   17 alpha a   ---  Virt.   23 alpha a   -0.05783 X
     Occ.   19 alpha a   ---  Virt.   23 alpha a    0.07718 X
     Occ.   21 alpha a   ---  Virt.   30 alpha a    0.79900 X
     Occ.   21 alpha a   ---  Virt.   31 alpha a   -0.20158 X
     Occ.   21 alpha a   ---  Virt.   35 alpha a    0.07228 X
     Occ.   21 alpha a   ---  Virt.   40 alpha a   -0.05679 X
     Occ.   14 beta  a   ---  Virt.   21 beta  a   -0.05901 X
     Occ.   16 beta  a   ---  Virt.   21 beta  a    0.16636 X
     Occ.   20 beta  a   ---  Virt.   24 beta  a    0.08235 X
     Occ.   20 beta  a   ---  Virt.   29 beta  a    0.49982 X
  ----------------------------------------------------------------------------
  Root  39         a              0.272469127 a.u.                7.4143 eV 
  <S2> =   1.7260
  ----------------------------------------------------------------------------
     Transition Moments    X -0.00000   Y  0.00000   Z -0.00003
     Transition Moments   XX  0.00007  XY -0.00002  XZ -0.54929
     Transition Moments   YY  0.00000  YZ -0.03482  ZZ  0.00003
     Dipole Oscillator Strength                    0.0000000001
     Electric Quadrupole                           0.0000000326
     Magnetic Dipole                               0.0000000014
     Total Oscillator Strength                     0.0000000341
 
     Occ.   19 alpha a   ---  Virt.   27 alpha a   -0.99008 X
     Occ.   19 alpha a   ---  Virt.   38 alpha a    0.09598 X
  ----------------------------------------------------------------------------
  Root  40         a              0.272687674 a.u.                7.4202 eV 
  <S2> =   1.9738
  ----------------------------------------------------------------------------
     Transition Moments    X -0.00001   Y  0.00004   Z  0.04277
     Transition Moments   XX  0.00001  XY  0.00003  XZ -0.03031
     Transition Moments   YY  0.00006  YZ  0.47761  ZZ  0.00001
     Dipole Oscillator Strength                    0.0003326019
     Electric Quadrupole                           0.0000000247
     Magnetic Dipole                               0.0000000051
     Total Oscillator Strength                     0.0003326317
 
     Occ.   19 alpha a   ---  Virt.   28 alpha a   -0.11775 X
     Occ.   20 alpha a   ---  Virt.   27 alpha a    0.09551 X
     Occ.   17 beta  a   ---  Virt.   21 beta  a   -0.05465 X
     Occ.   20 beta  a   ---  Virt.   28 beta  a    0.97444 X
     Occ.   20 beta  a   ---  Virt.   30 beta  a    0.05602 X
     Occ.   20 beta  a   ---  Virt.   32 beta  a    0.07507 X
     Occ.   20 beta  a   ---  Virt.   43 beta  a    0.08182 X
 
              Target root =      1
          Target symmetry = none
      Ground state energy =   -231.646322900401
        Excitation energy =      0.106086875353
     Excited state energy =   -231.540236025048
 
  stored tddft:energy   -231.540236025048     

 Task  times  cpu:     2977.1s     wall:     3066.3s
 
 
                                NWChem Input Module
                                -------------------
 
 
 Summary of allocated global arrays
-----------------------------------
  No active global arrays



                         GA Statistics for process    0
                         ------------------------------

       create   destroy   get      put      acc     scatter   gather  read&inc
calls: 9569     9569     1.00e+07 4.28e+06 1.88e+06 5640        0      340     
number of processes/call 1.32e+00 1.71e+00 1.89e+00 0.00e+00 0.00e+00
bytes total:             8.77e+10 1.16e+10 9.10e+10 6.26e+04 0.00e+00 2.72e+03
bytes remote:            6.38e+10 1.10e+09 8.68e+10 0.00e+00 0.00e+00 0.00e+00
Max memory consumed for GA by this process: 205086464 bytes
 
MA_summarize_allocated_blocks: starting scan ...
MA_summarize_allocated_blocks: scan completed: 0 heap blocks, 0 stack blocks
MA usage statistics:

	allocation statistics:
					      heap	     stack
					      ----	     -----
	current number of blocks	         0	         0
	maximum number of blocks	        20	        52
	current total bytes		         0	         0
	maximum total bytes		   1165984	  68276424
	maximum total K-bytes		      1166	     68277
	maximum total M-bytes		         2	        69
 
 
                                     CITATION
                                     --------
                Please cite the following reference when publishing
                           results obtained with NWChem:
 
                 M. Valiev, E.J. Bylaska, N. Govind, K. Kowalski,
              T.P. Straatsma, H.J.J. van Dam, D. Wang, J. Nieplocha,
                        E. Apra, T.L. Windus, W.A. de Jong
                 "NWChem: a comprehensive and scalable open-source
                  solution for large scale molecular simulations"
                      Comput. Phys. Commun. 181, 1477 (2010)
                           doi:10.1016/j.cpc.2010.04.018
 
                                      AUTHORS
                                      -------
          E. Apra, E. J. Bylaska, W. A. de Jong, N. Govind, K. Kowalski,
       T. P. Straatsma, M. Valiev, H. J. J. van Dam, D. Wang, T. L. Windus,
        J. Hammond, J. Autschbach, K. Bhaskaran-Nair, J. Brabec, K. Lopata,
    S. A. Fischer, S. Krishnamoorthy, M. Jacquelin, W. Ma, M. Klemm, O. Villa,
      Y. Chen, V. Anisimov, F. Aquino, S. Hirata, M. T. Hackler, V. Konjkov,
            D. Mejia-Rodriguez, T. Risthaus, M. Malagoli, A. Marenich,
   A. Otero-de-la-Roza, J. Mullin, P. Nichols, R. Peverati, J. Pittner, Y. Zhao,
        P.-D. Fan, A. Fonari, M. J. Williamson, R. J. Harrison, J. R. Rehr,
      M. Dupuis, D. Silverstein, D. M. A. Smith, J. Nieplocha, V. Tipparaju,
    M. Krishnan, B. E. Van Kuiken, A. Vazquez-Mayagoitia, L. Jensen, M. Swart,
      Q. Wu, T. Van Voorhis, A. A. Auer, M. Nooijen, L. D. Crosby, E. Brown,
      G. Cisneros, G. I. Fann, H. Fruchtl, J. Garza, K. Hirao, R. A. Kendall,
      J. A. Nichols, K. Tsemekhman, K. Wolinski, J. Anchell, D. E. Bernholdt,
      P. Borowski, T. Clark, D. Clerc, H. Dachsel, M. J. O. Deegan, K. Dyall,
    D. Elwood, E. Glendening, M. Gutowski, A. C. Hess, J. Jaffe, B. G. Johnson,
     J. Ju, R. Kobayashi, R. Kutteh, Z. Lin, R. Littlefield, X. Long, B. Meng,
      T. Nakajima, S. Niu, L. Pollack, M. Rosing, K. Glaesemann, G. Sandrone,
      M. Stave, H. Taylor, G. Thomas, J. H. van Lenthe, A. T. Wong, Z. Zhang.

 Total times  cpu:     2977.2s     wall:     3066.4s
