 argument  1 = /storage/home/j/jbb5516/normalModes/mode1323.47-m.nw
 


============================== echo of input deck ==============================
echo
start

title "None"

geometry
C    -0.08626452    1.38838019    0.00000005
C    -1.26765787    0.69083224   -0.00000002
C    -1.16790693   -0.70413677   -0.00000002
C     0.08333512   -1.31596275    0.00000004
C     1.24606182   -0.55325632   -0.00000001
C     1.17024927    0.84497557    0.00000005
H    -2.23288304    1.17924339   -0.00000010
H    -2.06602006   -1.30855634   -0.00000009
H     0.15143743   -2.39534197    0.00000000
H     2.21619774   -1.03352529   -0.00000013
H     2.06482738    1.45321655   -0.00000010
symmetry c1
end

basis spherical
 * library "aug-cc-pvtz"
end

dft
 direct
 mult 2
 iterations 500
 xc b3lyp
end

tddft
 nroots 40
 notriplet
 algorithm 1
end
task tddft energy
================================================================================


                                         
                                         
 
 
              Northwest Computational Chemistry Package (NWChem) 6.8
              ------------------------------------------------------
 
 
                    Environmental Molecular Sciences Laboratory
                       Pacific Northwest National Laboratory
                                Richland, WA 99352
 
                              Copyright (c) 1994-2017
                       Pacific Northwest National Laboratory
                            Battelle Memorial Institute
 
             NWChem is an open-source computational chemistry package
                        distributed under the terms of the
                      Educational Community License (ECL) 2.0
             A copy of the license is included with this distribution
                              in the LICENSE.TXT file
 
                                  ACKNOWLEDGMENT
                                  --------------

            This software and its documentation were developed at the
            EMSL at Pacific Northwest National Laboratory, a multiprogram
            national laboratory, operated for the U.S. Department of Energy
            by Battelle under Contract Number DE-AC05-76RL01830. Support
            for this work was provided by the Department of Energy Office
            of Biological and Environmental Research, Office of Basic
            Energy Sciences, and the Office of Advanced Scientific Computing.


           Job information
           ---------------

    hostname        = comp-sc-0153.acib.production.int.aci.ics.psu.edu
    program         = /gpfs/group/lxj18/default/jeffprograms/nwchem-6.8.1/bin/LINUX64/nwchem
    date            = Sun Sep 20 15:55:15 2020

    compiled        = Wed_Oct_03_14:08:39_2018
    source          = /gpfs/group/lxj18/default/jeffprograms/nwchem-6.8.1
    nwchem branch   = 6.8.1
    nwchem revision = v6.8-143-gdb0d964
    ga revision     = 5.6.5
    use scalapack   = F
    input           = /storage/home/j/jbb5516/normalModes/mode1323.47-m.nw
    prefix          = mode1323.47-m.
    data base       = ./mode1323.47-m.db
    status          = startup
    nproc           =       20
    time left       =     -1s



           Memory information
           ------------------

    heap     =   13107198 doubles =    100.0 Mbytes
    stack    =   13107195 doubles =    100.0 Mbytes
    global   =   26214400 doubles =    200.0 Mbytes (distinct from heap & stack)
    total    =   52428793 doubles =    400.0 Mbytes
    verify   = yes
    hardfail = no 


           Directory information
           ---------------------
 
  0 permanent = .
  0 scratch   = .
 
 
 
 
                                NWChem Input Module
                                -------------------
 
 
                                       None
                                       ----

 Scaling coordinates for geometry "geometry" by  1.889725989
 (inverse scale =  0.529177249)

 Turning off AUTOSYM since
 SYMMETRY directive was detected!
 

          ------
          auto-z
          ------
 
 
                             Geometry "geometry" -> ""
                             -------------------------
 
 Output coordinates in angstroms (scale by  1.889725989 to convert to a.u.)
 
  No.       Tag          Charge          X              Y              Z
 ---- ---------------- ---------- -------------- -------------- --------------
    1 C                    6.0000    -0.08627576     1.38837948     0.00000005
    2 C                    6.0000    -1.26766911     0.69083153    -0.00000002
    3 C                    6.0000    -1.16791817    -0.70413748    -0.00000002
    4 C                    6.0000     0.08332388    -1.31596346     0.00000004
    5 C                    6.0000     1.24605058    -0.55325703    -0.00000001
    6 C                    6.0000     1.17023803     0.84497486     0.00000005
    7 H                    1.0000    -2.23289428     1.17924268    -0.00000010
    8 H                    1.0000    -2.06603130    -1.30855705    -0.00000009
    9 H                    1.0000     0.15142619    -2.39534268    -0.00000000
   10 H                    1.0000     2.21618650    -1.03352600    -0.00000013
   11 H                    1.0000     2.06481614     1.45321584    -0.00000010
 
      Atomic Mass 
      ----------- 
 
      C                 12.000000
      H                  1.007825
 

 Effective nuclear repulsion energy (a.u.)     195.0640280516

            Nuclear Dipole moment (a.u.) 
            ----------------------------
        X                 Y               Z
 ---------------- ---------------- ----------------
     0.0000000000    -0.0000000000     0.0000000000
 


                                Z-matrix (autoz)
                                -------- 

 Units are Angstrom for bonds and degrees for angles
 
      Type          Name      I     J     K     L     M      Value
      ----------- --------  ----- ----- ----- ----- ----- ----------
    1 Stretch                  1     2                       1.37196
    2 Stretch                  1     6                       1.36898
    3 Stretch                  2     3                       1.39853
    4 Stretch                  2     7                       1.08176
    5 Stretch                  3     4                       1.39282
    6 Stretch                  3     8                       1.08256
    7 Stretch                  4     5                       1.39056
    8 Stretch                  4     9                       1.08153
    9 Stretch                  5     6                       1.40029
   10 Stretch                  5    10                       1.08251
   11 Stretch                  6    11                       1.08177
   12 Bend                     1     2     3               116.46940
   13 Bend                     1     2     7               122.60073
   14 Bend                     1     6     5               116.49059
   15 Bend                     1     6    11               122.40042
   16 Bend                     2     1     6               126.05344
   17 Bend                     2     3     4               120.14760
   18 Bend                     2     3     8               119.84997
   19 Bend                     3     2     7               120.92988
   20 Bend                     3     4     5               120.67911
   21 Bend                     3     4     9               119.66771
   22 Bend                     4     3     8               120.00244
   23 Bend                     4     5     6               120.15986
   24 Bend                     4     5    10               120.39872
   25 Bend                     5     4     9               119.65319
   26 Bend                     5     6    11               121.10899
   27 Bend                     6     5    10               119.44142
   28 Torsion                  1     2     3     4           0.00000
   29 Torsion                  1     2     3     8        -180.00000
   30 Torsion                  1     6     5     4           0.00000
   31 Torsion                  1     6     5    10         180.00000
   32 Torsion                  2     1     6     5           0.00000
   33 Torsion                  2     1     6    11         180.00000
   34 Torsion                  2     3     4     5           0.00000
   35 Torsion                  2     3     4     9        -180.00000
   36 Torsion                  3     2     1     6           0.00000
   37 Torsion                  3     4     5     6           0.00000
   38 Torsion                  3     4     5    10        -180.00000
   39 Torsion                  4     3     2     7         180.00000
   40 Torsion                  4     5     6    11        -180.00000
   41 Torsion                  5     4     3     8         180.00000
   42 Torsion                  6     1     2     7        -180.00000
   43 Torsion                  6     5     4     9        -180.00000
   44 Torsion                  7     2     3     8           0.00000
   45 Torsion                  8     3     4     9           0.00000
   46 Torsion                  9     4     5    10           0.00000
   47 Torsion                 10     5     6    11           0.00000
 
 
            XYZ format geometry
            -------------------
    11
 geometry
 C                    -0.08627576     1.38837948     0.00000005
 C                    -1.26766911     0.69083153    -0.00000002
 C                    -1.16791817    -0.70413748    -0.00000002
 C                     0.08332388    -1.31596346     0.00000004
 C                     1.24605058    -0.55325703    -0.00000001
 C                     1.17023803     0.84497486     0.00000005
 H                    -2.23289428     1.17924268    -0.00000010
 H                    -2.06603130    -1.30855705    -0.00000009
 H                     0.15142619    -2.39534268    -0.00000000
 H                     2.21618650    -1.03352600    -0.00000013
 H                     2.06481614     1.45321584    -0.00000010
 
 ==============================================================================
                                internuclear distances
 ------------------------------------------------------------------------------
       center one      |      center two      | atomic units |  angstroms
 ------------------------------------------------------------------------------
    2 C                |   1 C                |     2.59262  |     1.37196
    3 C                |   2 C                |     2.64284  |     1.39853
    4 C                |   3 C                |     2.63204  |     1.39282
    5 C                |   4 C                |     2.62778  |     1.39056
    6 C                |   1 C                |     2.58700  |     1.36898
    6 C                |   5 C                |     2.64616  |     1.40029
    7 H                |   2 C                |     2.04423  |     1.08176
    8 H                |   3 C                |     2.04574  |     1.08256
    9 H                |   4 C                |     2.04379  |     1.08153
   10 H                |   5 C                |     2.04564  |     1.08251
   11 H                |   6 C                |     2.04425  |     1.08177
 ------------------------------------------------------------------------------
                         number of included internuclear distances:         11
 ==============================================================================



 ==============================================================================
                                 internuclear angles
 ------------------------------------------------------------------------------
        center 1       |       center 2       |       center 3       |  degrees
 ------------------------------------------------------------------------------
    2 C                |   1 C                |   6 C                |   126.05
    1 C                |   2 C                |   3 C                |   116.47
    1 C                |   2 C                |   7 H                |   122.60
    3 C                |   2 C                |   7 H                |   120.93
    2 C                |   3 C                |   4 C                |   120.15
    2 C                |   3 C                |   8 H                |   119.85
    4 C                |   3 C                |   8 H                |   120.00
    3 C                |   4 C                |   5 C                |   120.68
    3 C                |   4 C                |   9 H                |   119.67
    5 C                |   4 C                |   9 H                |   119.65
    4 C                |   5 C                |   6 C                |   120.16
    4 C                |   5 C                |  10 H                |   120.40
    6 C                |   5 C                |  10 H                |   119.44
    1 C                |   6 C                |   5 C                |   116.49
    1 C                |   6 C                |  11 H                |   122.40
    5 C                |   6 C                |  11 H                |   121.11
 ------------------------------------------------------------------------------
                            number of included internuclear angles:         16
 ==============================================================================





 Summary of "ao basis" -> "" (spherical)
 ------------------------------------------------------------------------------
       Tag                 Description            Shells   Functions and Types
 ---------------- ------------------------------  ------  ---------------------
 *                        aug-cc-pvtz                 on all atoms 


 
                                 NWChem DFT Module
                                 -----------------
 
 
                                       None
 
 
                      Basis "ao basis" -> "ao basis" (spherical)
                      -----
  C (Carbon)
  ----------
            Exponent  Coefficients 
       -------------- ---------------------------------------------------------
  1 S  8.23600000E+03  0.000531
  1 S  1.23500000E+03  0.004108
  1 S  2.80800000E+02  0.021087
  1 S  7.92700000E+01  0.081853
  1 S  2.55900000E+01  0.234817
  1 S  8.99700000E+00  0.434401
  1 S  3.31900000E+00  0.346129
  1 S  3.64300000E-01 -0.008983
 
  2 S  8.23600000E+03 -0.000113
  2 S  1.23500000E+03 -0.000878
  2 S  2.80800000E+02 -0.004540
  2 S  7.92700000E+01 -0.018133
  2 S  2.55900000E+01 -0.055760
  2 S  8.99700000E+00 -0.126895
  2 S  3.31900000E+00 -0.170352
  2 S  3.64300000E-01  0.598684
 
  3 S  9.05900000E-01  1.000000
 
  4 S  1.28500000E-01  1.000000
 
  5 S  4.40200000E-02  1.000000
 
  6 P  1.87100000E+01  0.014031
  6 P  4.13300000E+00  0.086866
  6 P  1.20000000E+00  0.290216
 
  7 P  3.82700000E-01  1.000000
 
  8 P  1.20900000E-01  1.000000
 
  9 P  3.56900000E-02  1.000000
 
 10 D  1.09700000E+00  1.000000
 
 11 D  3.18000000E-01  1.000000
 
 12 D  1.00000000E-01  1.000000
 
 13 F  7.61000000E-01  1.000000
 
 14 F  2.68000000E-01  1.000000
 
  H (Hydrogen)
  ------------
            Exponent  Coefficients 
       -------------- ---------------------------------------------------------
  1 S  3.38700000E+01  0.006068
  1 S  5.09500000E+00  0.045308
  1 S  1.15900000E+00  0.202822
 
  2 S  3.25800000E-01  1.000000
 
  3 S  1.02700000E-01  1.000000
 
  4 S  2.52600000E-02  1.000000
 
  5 P  1.40700000E+00  1.000000
 
  6 P  3.88000000E-01  1.000000
 
  7 P  1.02000000E-01  1.000000
 
  8 D  1.05700000E+00  1.000000
 
  9 D  2.47000000E-01  1.000000
 


 Summary of "ao basis" -> "ao basis" (spherical)
 ------------------------------------------------------------------------------
       Tag                 Description            Shells   Functions and Types
 ---------------- ------------------------------  ------  ---------------------
 C                        aug-cc-pvtz               14       46   5s4p3d2f
 H                        aug-cc-pvtz                9       23   4s3p2d




 Summary of "ao basis" -> "ao basis" (spherical)
 ------------------------------------------------------------------------------
       Tag                 Description            Shells   Functions and Types
 ---------------- ------------------------------  ------  ---------------------
 C                        aug-cc-pvtz               14       46   5s4p3d2f
 H                        aug-cc-pvtz                9       23   4s3p2d


  Caching 1-el integrals 
 
            General Information
            -------------------
          SCF calculation type: DFT
          Wavefunction type:  spin polarized.
          No. of atoms     :    11
          No. of electrons :    41
           Alpha electrons :    21
            Beta electrons :    20
          Charge           :     0
          Spin multiplicity:     2
          Use of symmetry is: off; symmetry adaption is: off
          Maximum number of iterations: 500
          This is a Direct SCF calculation.
          AO basis - number of functions:   391
                     number of shells:   129
          Convergence on energy requested:  1.00D-06
          Convergence on density requested:  1.00D-05
          Convergence on gradient requested:  5.00D-04
 
              XC Information
              --------------
                         B3LYP Method XC Potential
                     Hartree-Fock (Exact) Exchange  0.200          
                        Slater Exchange Functional  0.800 local    
                    Becke 1988 Exchange Functional  0.720 non-local
              Lee-Yang-Parr Correlation Functional  0.810          
                  VWN I RPA Correlation Functional  0.190 local    
 
             Grid Information
             ----------------
          Grid used for XC integration:  medium    
          Radial quadrature: Mura-Knowles        
          Angular quadrature: Lebedev. 
          Tag              B.-S. Rad. Rad. Pts. Rad. Cut. Ang. Pts.
          ---              ---------- --------- --------- ---------
          C                   0.70       49          15.0       434
          H                   0.35       45          17.0       434
          Grid pruning is: on 
          Number of quadrature shells:   519
          Spatial weights used:  Erf1
 
          Convergence Information
          -----------------------
          Convergence aids based upon iterative change in 
          total energy or number of iterations. 
          Levelshifting, if invoked, occurs when the 
          HOMO/LUMO gap drops below (HL_TOL):  1.00D-02
          DIIS, if invoked, will attempt to extrapolate 
          using up to (NFOCK): 10 stored Fock matrices.

                    Damping( 0%)  Levelshifting(0.5)       DIIS
                  --------------- ------------------- ---------------
          dE  on:    start            ASAP                start   
          dE off:    2 iters        500 iters           500 iters 

 
      Screening Tolerance Information
      -------------------------------
          Density screening/tol_rho:  1.00D-10
          AO Gaussian exp screening on grid/accAOfunc:  14
          CD Gaussian exp screening on grid/accCDfunc:  20
          XC Gaussian exp screening on grid/accXCfunc:  20
          Schwarz screening/accCoul:  1.00D-08

 
 WARNING : Found     7 linear dependencies 
 S eigenvalue threshold:     1.00000E-05
 Smallest S eigenvalue :     1.46409E-06
 Largest  S eigenvalue :     7.76575E-06
 

 !! The overlap matrix has   7 vectors deemed linearly dependent with
    eigenvalues:
 1.46D-06 2.24D-06 2.83D-06 3.54D-06 5.27D-06 5.95D-06 7.77D-06
 
 
      Superposition of Atomic Density Guess
      -------------------------------------
 
 Sum of atomic energies:        -228.52307259
 
      Non-variational initial energy
      ------------------------------

 Total energy =    -232.667214
 1-e energy   =    -691.328552
 2-e energy   =     263.597310
 HOMO         =      -0.183326
 LUMO         =      -0.022267
 
   Time after variat. SCF:      8.9
   Time prior to 1st pass:      8.9

 Grid_pts file          = ./mode1323.47-m.gridpts.00
 Record size in doubles =  12289        No. of grid_pts per rec  =   3070
 Max. records in memory =      6        Max. recs in file   = 220140463

 Grid integrated density:      40.999765967656
 Requested integration accuracy:   0.10E-05

           Memory utilization after 1st SCF pass: 
           Heap Space remaining (MW):       12.96            12961278
          Stack Space remaining (MW):       13.10            13103676

   convergence    iter        energy       DeltaE   RMS-Dens  Diis-err    time
 ---------------- ----- ----------------- --------- --------- ---------  ------
 d= 0,ls=0.0,diis     1   -231.5816744207 -4.27D+02  6.12D-02  2.09D-01    19.7
                                                     6.89D-02  1.96D-01
 d= 0,ls=0.0,diis     2   -231.6398428801 -5.82D-02  6.02D-02  1.22D-02    30.3
                                                     6.78D-02  1.24D-02
 d= 0,ls=0.0,diis     3   -231.6446025760 -4.76D-03  1.27D-03  3.44D-03    41.0
                                                     1.37D-03  3.50D-03
 d= 0,ls=0.0,diis     4   -231.6457626118 -1.16D-03  2.03D-04  1.12D-03    51.7
                                                     2.06D-04  1.06D-03
 d= 0,ls=0.0,diis     5   -231.6462794013 -5.17D-04  3.38D-05  4.26D-05    62.5
                                                     3.09D-05  4.86D-05
  Resetting Diis
 d= 0,ls=0.0,diis     6   -231.6463072114 -2.78D-05  1.10D-05  8.22D-06    73.2
                                                     1.05D-05  6.72D-06
 d= 0,ls=0.0,diis     7   -231.6463135357 -6.32D-06  7.47D-06  2.25D-06    83.9
                                                     6.70D-06  2.48D-06
 d= 0,ls=0.0,diis     8   -231.6463144186 -8.83D-07  3.11D-06  5.98D-06    94.7
                                                     2.79D-06  5.35D-06


         Total DFT energy =     -231.646314418593
      One electron energy =     -696.565113780727
           Coulomb energy =      304.264171423198
    Exchange-Corr. energy =      -34.409400112710
 Nuclear repulsion energy =      195.064028051646

 Numeric. integr. density =       40.999984447134

     Total iterative time =     85.8s


 
                    DFT Final Alpha Molecular Orbital Analysis
                    ------------------------------------------
 
 Vector    1  Occ=1.000000D+00  E=-1.020519D+01
              MO Center= -8.6D-02,  1.4D+00,  4.8D-08, r^2= 3.0D-02
   Bfn.  Coefficient  Atom+Function         Bfn.  Coefficient  Atom+Function  
  ----- ------------  ---------------      ----- ------------  ---------------
     1      0.984156   1 C  s                 3      0.058847   1 C  s         
   234     -0.039350   6 C  s               371      0.038444  11 H  s         
   143      0.037892   4 C  s                50     -0.037419   2 C  s         
   279      0.037463   7 H  s               235     -0.031037   6 C  s         
    51     -0.030327   2 C  s               231      0.025623   6 C  s         
 
 Vector    2  Occ=1.000000D+00  E=-1.019186D+01
              MO Center=  6.7D-01, -5.4D-01, -1.6D-08, r^2= 1.2D+00
   Bfn.  Coefficient  Atom+Function         Bfn.  Coefficient  Atom+Function  
  ----- ------------  ---------------      ----- ------------  ---------------
   185      0.844645   5 C  s                93      0.469777   3 C  s         
   231      0.162051   6 C  s                47      0.097947   2 C  s         
   142     -0.095389   4 C  s               139      0.058057   4 C  s         
   187      0.050464   5 C  s               325      0.049124   9 H  s         
   348      0.045793  10 H  s                50      0.033259   2 C  s         
 
 Vector    3  Occ=1.000000D+00  E=-1.019184D+01
              MO Center= -6.0D-01, -5.9D-01, -2.1D-08, r^2= 1.2D+00
   Bfn.  Coefficient  Atom+Function         Bfn.  Coefficient  Atom+Function  
  ----- ------------  ---------------      ----- ------------  ---------------
    93      0.834743   3 C  s               185     -0.469277   5 C  s         
    47      0.211938   2 C  s               231     -0.108099   6 C  s         
   234      0.061610   6 C  s               302      0.058019   8 H  s         
    50     -0.053729   2 C  s               235      0.053054   6 C  s         
   371     -0.051160  11 H  s                51     -0.050510   2 C  s         
 
 Vector    4  Occ=1.000000D+00  E=-1.019054D+01
              MO Center= -1.3D+00,  6.1D-01, -2.3D-08, r^2= 1.3D-01
   Bfn.  Coefficient  Atom+Function         Bfn.  Coefficient  Atom+Function  
  ----- ------------  ---------------      ----- ------------  ---------------
    47      0.957494   2 C  s                93     -0.229602   3 C  s         
   279      0.057751   7 H  s                49      0.055648   2 C  s         
   189      0.038769   5 C  s               188      0.034670   5 C  s         
   143      0.032487   4 C  s                12      0.030138   1 C  px        
    97     -0.029940   3 C  s                51     -0.029408   2 C  s         
 
 Vector    5  Occ=1.000000D+00  E=-1.019032D+01
              MO Center=  1.2D+00,  7.9D-01,  4.6D-08, r^2= 1.1D-01
   Bfn.  Coefficient  Atom+Function         Bfn.  Coefficient  Atom+Function  
  ----- ------------  ---------------      ----- ------------  ---------------
   231      0.965965   6 C  s               185     -0.191493   5 C  s         
   371      0.059356  11 H  s               233      0.056258   6 C  s         
    97      0.040384   3 C  s                96      0.036041   3 C  s         
   189     -0.032165   5 C  s                12     -0.031722   1 C  px        
   143      0.031065   4 C  s               235     -0.030681   6 C  s         
 
 Vector    6  Occ=1.000000D+00  E=-1.018448D+01
              MO Center=  8.3D-02, -1.3D+00,  3.9D-08, r^2= 3.5D-02
   Bfn.  Coefficient  Atom+Function         Bfn.  Coefficient  Atom+Function  
  ----- ------------  ---------------      ----- ------------  ---------------
   139      0.984216   4 C  s               141      0.057789   4 C  s         
    96     -0.045853   3 C  s               188     -0.045926   5 C  s         
   325      0.045944   9 H  s               143     -0.043458   4 C  s         
   185     -0.040696   5 C  s                 4      0.040413   1 C  s         
    93     -0.040178   3 C  s               151      0.035985   4 C  py        
 
 Vector    7  Occ=1.000000D+00  E=-8.725025D-01
              MO Center= -4.6D-03,  9.9D-02,  5.0D-09, r^2= 2.0D+00
   Bfn.  Coefficient  Atom+Function         Bfn.  Coefficient  Atom+Function  
  ----- ------------  ---------------      ----- ------------  ---------------
     2      0.213898   1 C  s                48      0.202443   2 C  s         
   232      0.203017   6 C  s                94      0.195367   3 C  s         
   186      0.195732   5 C  s               140      0.188334   4 C  s         
    50      0.091214   2 C  s               234      0.089128   6 C  s         
    96      0.087946   3 C  s               188      0.088332   5 C  s         
 
 Vector    8  Occ=1.000000D+00  E=-7.627873D-01
              MO Center= -1.1D-02,  1.0D-01,  1.6D-09, r^2= 2.8D+00
   Bfn.  Coefficient  Atom+Function         Bfn.  Coefficient  Atom+Function  
  ----- ------------  ---------------      ----- ------------  ---------------
   232     -0.251739   6 C  s                48      0.250340   2 C  s         
    94      0.245163   3 C  s               186     -0.242122   5 C  s         
    50      0.146767   2 C  s               234     -0.145687   6 C  s         
   371      0.130114  11 H  s               279     -0.128686   7 H  s         
   150     -0.115461   4 C  px               97      0.110947   3 C  s         
 
 Vector    9  Occ=1.000000D+00  E=-7.537742D-01
              MO Center=  1.4D-02, -1.5D-01, -2.7D-08, r^2= 2.6D+00
   Bfn.  Coefficient  Atom+Function         Bfn.  Coefficient  Atom+Function  
  ----- ------------  ---------------      ----- ------------  ---------------
   140     -0.301124   4 C  s                 2      0.278289   1 C  s         
   186     -0.151179   5 C  s                48      0.149499   2 C  s         
   142     -0.147399   4 C  s                94     -0.146212   3 C  s         
   232      0.146863   6 C  s               188     -0.106150   5 C  s         
    96     -0.103544   3 C  s                 4      0.102939   1 C  s         
 
 Vector   10  Occ=1.000000D+00  E=-6.187733D-01
              MO Center= -5.8D-03,  3.8D-02, -1.0D-08, r^2= 3.6D+00
   Bfn.  Coefficient  Atom+Function         Bfn.  Coefficient  Atom+Function  
  ----- ------------  ---------------      ----- ------------  ---------------
   186      0.209522   5 C  s                94     -0.207800   3 C  s         
    48      0.200587   2 C  s               232     -0.198139   6 C  s         
    50      0.185691   2 C  s               234     -0.181049   6 C  s         
    96     -0.147057   3 C  s               188      0.146871   5 C  s         
     6     -0.127191   1 C  px              144      0.116977   4 C  px        
 
 Vector   11  Occ=1.000000D+00  E=-6.035749D-01
              MO Center=  9.1D-03, -8.5D-02, -3.1D-08, r^2= 3.5D+00
   Bfn.  Coefficient  Atom+Function         Bfn.  Coefficient  Atom+Function  
  ----- ------------  ---------------      ----- ------------  ---------------
   142      0.258331   4 C  s                 2      0.239055   1 C  s         
   140      0.218578   4 C  s                 4      0.198643   1 C  s         
    94     -0.139968   3 C  s               186     -0.136912   5 C  s         
   234     -0.124822   6 C  s                96     -0.121196   3 C  s         
    50     -0.120567   2 C  s               188     -0.117358   5 C  s         
 
 Vector   12  Occ=1.000000D+00  E=-5.277747D-01
              MO Center=  8.6D-03, -1.5D-01, -1.1D-08, r^2= 4.1D+00
   Bfn.  Coefficient  Atom+Function         Bfn.  Coefficient  Atom+Function  
  ----- ------------  ---------------      ----- ------------  ---------------
   148      0.159333   4 C  py              145      0.138874   4 C  py        
   324     -0.126841   9 H  s                55      0.105448   2 C  px        
   240     -0.104950   6 C  py              323     -0.100400   9 H  s         
   237     -0.096243   6 C  py              193     -0.094366   5 C  px        
   278     -0.094640   7 H  s               370     -0.094291  11 H  s         
 
 Vector   13  Occ=1.000000D+00  E=-4.646285D-01
              MO Center= -6.6D-02,  9.0D-02, -7.4D-09, r^2= 2.8D+00
   Bfn.  Coefficient  Atom+Function         Bfn.  Coefficient  Atom+Function  
  ----- ------------  ---------------      ----- ------------  ---------------
     9      0.185216   1 C  px                6      0.171760   1 C  px        
   147      0.168568   4 C  px              144      0.155586   4 C  px        
    55     -0.137932   2 C  px              102      0.133978   3 C  py        
    56     -0.128179   2 C  py              193     -0.126510   5 C  px        
    52     -0.123890   2 C  px               99      0.120511   3 C  py        
 
 Vector   14  Occ=1.000000D+00  E=-4.631186D-01
              MO Center=  7.4D-02, -1.4D-01, -3.5D-08, r^2= 4.7D+00
   Bfn.  Coefficient  Atom+Function         Bfn.  Coefficient  Atom+Function  
  ----- ------------  ---------------      ----- ------------  ---------------
     2      0.173120   1 C  s               101     -0.139983   3 C  px        
   301      0.138458   8 H  s                98     -0.129307   3 C  px        
   347      0.129802  10 H  s               140     -0.126914   4 C  s         
   104     -0.122672   3 C  px              239     -0.121797   6 C  px        
   188      0.120708   5 C  s               370     -0.116194  11 H  s         
 
 Vector   15  Occ=1.000000D+00  E=-4.400171D-01
              MO Center= -1.9D-02,  2.1D-01, -2.5D-08, r^2= 4.0D+00
   Bfn.  Coefficient  Atom+Function         Bfn.  Coefficient  Atom+Function  
  ----- ------------  ---------------      ----- ------------  ---------------
   240      0.143489   6 C  py              102      0.139071   3 C  py        
   237      0.132455   6 C  py              278     -0.132368   7 H  s         
    55      0.130197   2 C  px               99      0.130245   3 C  py        
   370      0.130443  11 H  s                56     -0.129214   2 C  py        
   194     -0.126861   5 C  py               53     -0.120027   2 C  py        
 
 Vector   16  Occ=1.000000D+00  E=-3.991018D-01
              MO Center=  5.4D-02, -7.8D-01, -9.7D-09, r^2= 3.3D+00
   Bfn.  Coefficient  Atom+Function         Bfn.  Coefficient  Atom+Function  
  ----- ------------  ---------------      ----- ------------  ---------------
   148      0.233634   4 C  py              145      0.209271   4 C  py        
   324     -0.198452   9 H  s               151      0.172852   4 C  py        
   323     -0.153996   9 H  s                10      0.138405   1 C  py        
    13      0.120821   1 C  py              240      0.115639   6 C  py        
    56      0.109361   2 C  py              194     -0.108562   5 C  py        
 
 Vector   17  Occ=1.000000D+00  E=-3.837245D-01
              MO Center= -6.4D-03,  1.2D-01, -5.8D-08, r^2= 2.7D+00
   Bfn.  Coefficient  Atom+Function         Bfn.  Coefficient  Atom+Function  
  ----- ------------  ---------------      ----- ------------  ---------------
    11      0.173060   1 C  pz               57      0.156514   2 C  pz        
   241      0.156766   6 C  pz              103      0.151957   3 C  pz        
   195      0.152171   5 C  pz              149      0.146161   4 C  pz        
     8      0.136557   1 C  pz               54      0.125814   2 C  pz        
   238      0.126044   6 C  pz              100      0.121543   3 C  pz        
 
 Vector   18  Occ=1.000000D+00  E=-3.660171D-01
              MO Center=  3.4D-03, -1.4D-01, -2.8D-08, r^2= 4.1D+00
   Bfn.  Coefficient  Atom+Function         Bfn.  Coefficient  Atom+Function  
  ----- ------------  ---------------      ----- ------------  ---------------
   147     -0.169494   4 C  px              101      0.165813   3 C  px        
   193      0.164422   5 C  px              144     -0.159993   4 C  px        
    98      0.150072   3 C  px                9      0.149287   1 C  px        
   190      0.148568   5 C  px                6      0.141542   1 C  px        
   196      0.134934   5 C  px              104      0.134156   3 C  px        
 
 Vector   19  Occ=1.000000D+00  E=-2.685168D-01
              MO Center= -5.3D-04, -1.7D-02,  8.1D-08, r^2= 3.0D+00
   Bfn.  Coefficient  Atom+Function         Bfn.  Coefficient  Atom+Function  
  ----- ------------  ---------------      ----- ------------  ---------------
    11      0.244241   1 C  pz              149     -0.238677   4 C  pz        
     8      0.192136   1 C  pz              146     -0.190762   4 C  pz        
    14      0.175517   1 C  pz              152     -0.171775   4 C  pz        
   103     -0.137936   3 C  pz              241      0.127679   6 C  pz        
   195     -0.114006   5 C  pz              100     -0.110232   3 C  pz        
 
 Vector   20  Occ=1.000000D+00  E=-2.679237D-01
              MO Center= -3.6D-03,  6.3D-02,  2.8D-07, r^2= 3.1D+00
   Bfn.  Coefficient  Atom+Function         Bfn.  Coefficient  Atom+Function  
  ----- ------------  ---------------      ----- ------------  ---------------
   195     -0.213912   5 C  pz               57      0.211249   2 C  pz        
   103      0.199365   3 C  pz              241     -0.196649   6 C  pz        
   192     -0.170474   5 C  pz               54      0.169080   2 C  pz        
   100      0.158873   3 C  pz              238     -0.157468   6 C  pz        
    60      0.155570   2 C  pz              198     -0.154593   5 C  pz        
 
 Vector   21  Occ=1.000000D+00  E=-2.483356D-01
              MO Center= -7.9D-02,  1.3D+00,  8.3D-08, r^2= 2.3D+00
   Bfn.  Coefficient  Atom+Function         Bfn.  Coefficient  Atom+Function  
  ----- ------------  ---------------      ----- ------------  ---------------
    10      0.385922   1 C  py               13      0.337705   1 C  py        
     5      0.335447   1 C  s                 7      0.299343   1 C  py        
     4      0.279446   1 C  s                 2      0.138448   1 C  s         
   243     -0.136370   6 C  py               59     -0.133939   2 C  py        
   194      0.112681   5 C  py              102      0.111912   3 C  py        
 
 Vector   22  Occ=0.000000D+00  E=-2.605724D-02
              MO Center= -9.1D-03,  6.5D-02, -1.1D-06, r^2= 4.3D+00
   Bfn.  Coefficient  Atom+Function         Bfn.  Coefficient  Atom+Function  
  ----- ------------  ---------------      ----- ------------  ---------------
   201      0.321638   5 C  pz              109     -0.318803   3 C  pz        
    63      0.316146   2 C  pz              247     -0.311978   6 C  pz        
    60      0.228378   2 C  pz              198      0.224604   5 C  pz        
   244     -0.225025   6 C  pz              106     -0.223336   3 C  pz        
    57      0.219979   2 C  pz              195      0.217887   5 C  pz        
 
 Vector   23  Occ=0.000000D+00  E=-1.861671D-02
              MO Center=  7.0D-03, -4.7D-02, -4.1D-06, r^2= 4.3D+00
   Bfn.  Coefficient  Atom+Function         Bfn.  Coefficient  Atom+Function  
  ----- ------------  ---------------      ----- ------------  ---------------
   155      0.439235   4 C  pz               17      0.373855   1 C  pz        
   152      0.273702   4 C  pz               11      0.259152   1 C  pz        
   149      0.250604   4 C  pz               14      0.240765   1 C  pz        
   109     -0.228983   3 C  pz              201     -0.223902   5 C  pz        
     8      0.200854   1 C  pz              247     -0.201685   6 C  pz        
 
 Vector   24  Occ=0.000000D+00  E=-1.011851D-02
              MO Center=  6.2D-02, -9.6D-01, -2.0D-06, r^2= 2.0D+01
   Bfn.  Coefficient  Atom+Function         Bfn.  Coefficient  Atom+Function  
  ----- ------------  ---------------      ----- ------------  ---------------
     5      1.445427   1 C  s               279     -0.975577   7 H  s         
   371     -0.977003  11 H  s               326     -0.742086   9 H  s         
   303     -0.730194   8 H  s               349     -0.730483  10 H  s         
   302     -0.651610   8 H  s               348     -0.648577  10 H  s         
   325     -0.588077   9 H  s                51      0.567238   2 C  s         
 
 Vector   25  Occ=0.000000D+00  E= 4.377798D-03
              MO Center=  2.2D-02, -2.6D-01, -8.4D-06, r^2= 2.7D+01
   Bfn.  Coefficient  Atom+Function         Bfn.  Coefficient  Atom+Function  
  ----- ------------  ---------------      ----- ------------  ---------------
   235     -2.752378   6 C  s                51      2.709872   2 C  s         
    97      2.672193   3 C  s               189     -2.672626   5 C  s         
   303      1.998137   8 H  s               349     -1.995874  10 H  s         
    15      1.866726   1 C  px              153      1.806846   4 C  px        
   372     -1.545526  11 H  s               280      1.533192   7 H  s         
 
 Vector   26  Occ=0.000000D+00  E= 8.724794D-03
              MO Center= -2.9D-03, -7.4D-02,  5.7D-05, r^2= 2.7D+01
   Bfn.  Coefficient  Atom+Function         Bfn.  Coefficient  Atom+Function  
  ----- ------------  ---------------      ----- ------------  ---------------
   143      6.244535   4 C  s                51     -4.003907   2 C  s         
   235     -4.013955   6 C  s               326      2.932688   9 H  s         
     5      2.588510   1 C  s               280     -2.391821   7 H  s         
   372     -2.384192  11 H  s               154      1.946868   4 C  py        
   246      1.941361   6 C  py               62      1.822392   2 C  py        
 
 Vector   27  Occ=0.000000D+00  E= 2.670367D-02
              MO Center= -1.1D-02,  2.4D-01, -1.9D-05, r^2= 3.1D+01
   Bfn.  Coefficient  Atom+Function         Bfn.  Coefficient  Atom+Function  
  ----- ------------  ---------------      ----- ------------  ---------------
   280      3.928583   7 H  s               372     -3.935786  11 H  s         
    51      3.654405   2 C  s               235     -3.662618   6 C  s         
   303     -3.597497   8 H  s               349      3.605559  10 H  s         
    61      2.225816   2 C  px              189      2.197277   5 C  s         
    97     -2.183588   3 C  s               199     -2.041106   5 C  px        
 
 Vector   28  Occ=0.000000D+00  E= 3.221405D-02
              MO Center=  3.8D-02, -6.2D-01, -1.2D-04, r^2= 2.9D+01
   Bfn.  Coefficient  Atom+Function         Bfn.  Coefficient  Atom+Function  
  ----- ------------  ---------------      ----- ------------  ---------------
     5      6.395528   1 C  s               326     -4.997059   9 H  s         
   303      3.732586   8 H  s               349      3.719980  10 H  s         
    97     -2.180601   3 C  s               154     -2.175074   4 C  py        
   189     -2.176824   5 C  s               199     -1.645494   5 C  px        
   245      1.629468   6 C  px               61     -1.584789   2 C  px        
 
 Vector   29  Occ=0.000000D+00  E= 4.329035D-02
              MO Center=  1.5D-02, -2.2D-01,  8.7D-06, r^2= 1.3D+01
   Bfn.  Coefficient  Atom+Function         Bfn.  Coefficient  Atom+Function  
  ----- ------------  ---------------      ----- ------------  ---------------
   155      0.598991   4 C  pz               63      0.575517   2 C  pz        
   247      0.576513   6 C  pz               17     -0.260356   1 C  pz        
    60     -0.155252   2 C  pz              244     -0.154916   6 C  pz        
   289     -0.123583   7 H  pz              381     -0.123510  11 H  pz        
   259      0.120930   6 C  d -1             77      0.110523   2 C  d  1      
 
 Vector   30  Occ=0.000000D+00  E= 5.495270D-02
              MO Center=  7.9D-03, -1.5D-01, -4.0D-05, r^2= 1.5D+01
   Bfn.  Coefficient  Atom+Function         Bfn.  Coefficient  Atom+Function  
  ----- ------------  ---------------      ----- ------------  ---------------
     5     10.700637   1 C  s               143      5.279797   4 C  s         
   235     -4.502051   6 C  s                51     -4.467043   2 C  s         
   303     -2.803182   8 H  s               349     -2.794184  10 H  s         
   326      2.057232   9 H  s               199      2.009906   5 C  px        
    97     -1.958981   3 C  s               189     -1.939198   5 C  s         
 
 Vector   31  Occ=0.000000D+00  E= 6.334904D-02
              MO Center= -4.0D-02,  6.5D-01, -1.0D-04, r^2= 2.8D+01
   Bfn.  Coefficient  Atom+Function         Bfn.  Coefficient  Atom+Function  
  ----- ------------  ---------------      ----- ------------  ---------------
     5     24.385171   1 C  s               235     -9.908513   6 C  s         
    51     -9.808776   2 C  s               143      7.629749   4 C  s         
    97     -6.537507   3 C  s               189     -6.485788   5 C  s         
   326      5.866865   9 H  s               154      4.772887   4 C  py        
   303     -4.678499   8 H  s               349     -4.687181  10 H  s         
 
 Vector   32  Occ=0.000000D+00  E= 6.574347D-02
              MO Center= -1.1D-03, -2.3D-02,  5.3D-04, r^2= 1.8D+01
   Bfn.  Coefficient  Atom+Function         Bfn.  Coefficient  Atom+Function  
  ----- ------------  ---------------      ----- ------------  ---------------
   109      0.978003   3 C  pz              201     -0.972378   5 C  pz        
   247     -0.773903   6 C  pz               63      0.769341   2 C  pz        
   169     -0.676793   4 C  d  1             31     -0.583201   1 C  d  1      
   198     -0.495275   5 C  pz               60      0.489579   2 C  pz        
   106      0.488806   3 C  pz              244     -0.487719   6 C  pz        
 
 Vector   33  Occ=0.000000D+00  E= 6.825410D-02
              MO Center= -9.5D-03,  1.9D-01, -2.7D-04, r^2= 1.8D+01
   Bfn.  Coefficient  Atom+Function         Bfn.  Coefficient  Atom+Function  
  ----- ------------  ---------------      ----- ------------  ---------------
    63      1.025090   2 C  pz              247      1.025021   6 C  pz        
   201     -0.812871   5 C  pz              109     -0.806616   3 C  pz        
   155     -0.753969   4 C  pz               14      0.629111   1 C  pz        
   152     -0.618227   4 C  pz               17      0.456564   1 C  pz        
   213     -0.449138   5 C  d -1            121     -0.406415   3 C  d -1      
 
 Vector   34  Occ=0.000000D+00  E= 7.645199D-02
              MO Center=  1.8D-02, -1.6D-01, -1.2D-04, r^2= 3.5D+01
   Bfn.  Coefficient  Atom+Function         Bfn.  Coefficient  Atom+Function  
  ----- ------------  ---------------      ----- ------------  ---------------
   235    -14.068848   6 C  s                51     13.663011   2 C  s         
    97     12.434900   3 C  s               189    -12.381254   5 C  s         
    15      7.678923   1 C  px              153      7.704551   4 C  px        
   107      4.710139   3 C  px              303      4.698664   8 H  s         
   349     -4.682450  10 H  s               199      4.504552   5 C  px        
 
 Vector   35  Occ=0.000000D+00  E= 7.790908D-02
              MO Center=  2.2D-01, -3.3D+00,  1.3D-04, r^2= 2.1D+01
   Bfn.  Coefficient  Atom+Function         Bfn.  Coefficient  Atom+Function  
  ----- ------------  ---------------      ----- ------------  ---------------
   143     18.268936   4 C  s                51    -13.574247   2 C  s         
   235    -13.307700   6 C  s               326      7.027884   9 H  s         
   246      5.709936   6 C  py               62      5.615784   2 C  py        
   200      5.358480   5 C  py              154      5.269973   4 C  py        
   108      5.064359   3 C  py              371      4.204260  11 H  s         
 
 Vector   36  Occ=0.000000D+00  E= 8.154878D-02
              MO Center= -1.1D-01,  1.4D+00,  7.3D-05, r^2= 2.8D+01
   Bfn.  Coefficient  Atom+Function         Bfn.  Coefficient  Atom+Function  
  ----- ------------  ---------------      ----- ------------  ---------------
   143     20.703083   4 C  s                51     -8.940012   2 C  s         
   235     -8.939437   6 C  s               246      5.292854   6 C  py        
    62      5.132544   2 C  py              325     -4.964993   9 H  s         
   280     -4.571970   7 H  s               372     -4.556843  11 H  s         
   200      4.478895   5 C  py              326      4.497816   9 H  s         
 
 Vector   37  Occ=0.000000D+00  E= 8.316739D-02
              MO Center=  5.1D-02, -7.3D-01, -1.0D-05, r^2= 2.2D+01
   Bfn.  Coefficient  Atom+Function         Bfn.  Coefficient  Atom+Function  
  ----- ------------  ---------------      ----- ------------  ---------------
   189     -4.962344   5 C  s                97      4.931532   3 C  s         
   235      3.220725   6 C  s                51     -3.050525   2 C  s         
   303      2.811853   8 H  s               349     -2.801537  10 H  s         
   108      2.763844   3 C  py              200     -2.719311   5 C  py        
   153      2.605448   4 C  px               96      2.093642   3 C  s         
 
 Vector   38  Occ=0.000000D+00  E= 9.540103D-02
              MO Center= -5.6D-02,  8.8D-01,  1.2D-05, r^2= 3.1D+01
   Bfn.  Coefficient  Atom+Function         Bfn.  Coefficient  Atom+Function  
  ----- ------------  ---------------      ----- ------------  ---------------
    51     17.639891   2 C  s               235    -17.722661   6 C  s         
   280      7.217198   7 H  s               372     -7.216451  11 H  s         
   189      6.928689   5 C  s                97     -6.883962   3 C  s         
   108     -6.445318   3 C  py              303     -6.199921   8 H  s         
   349      6.201936  10 H  s               200      5.934196   5 C  py        
 
 Vector   39  Occ=0.000000D+00  E= 1.017975D-01
              MO Center= -1.0D-02,  1.1D-01, -3.3D-04, r^2= 1.9D+01
   Bfn.  Coefficient  Atom+Function         Bfn.  Coefficient  Atom+Function  
  ----- ------------  ---------------      ----- ------------  ---------------
   235    -13.776578   6 C  s                51     13.698906   2 C  s         
    97     10.883906   3 C  s               189    -10.879332   5 C  s         
    15     10.000763   1 C  px              153      9.716758   4 C  px        
   246     -6.081412   6 C  py              108     -6.016571   3 C  py        
   200      5.999753   5 C  py               62      5.923608   2 C  py        
 
 Vector   40  Occ=0.000000D+00  E= 1.064716D-01
              MO Center= -6.6D-03,  1.3D-01, -5.6D-04, r^2= 2.1D+01
   Bfn.  Coefficient  Atom+Function         Bfn.  Coefficient  Atom+Function  
  ----- ------------  ---------------      ----- ------------  ---------------
   143     18.278114   4 C  s                51     -9.925778   2 C  s         
   235     -9.951366   6 C  s                 5     -9.462307   1 C  s         
   107     -8.760532   3 C  px              199      7.973984   5 C  px        
   245     -7.039885   6 C  px              200      6.731175   5 C  py        
    61      6.494146   2 C  px              108      5.670587   3 C  py        
 
 Vector   41  Occ=0.000000D+00  E= 1.081986D-01
              MO Center=  3.5D-04,  1.6D-01, -1.0D-04, r^2= 2.2D+01
   Bfn.  Coefficient  Atom+Function         Bfn.  Coefficient  Atom+Function  
  ----- ------------  ---------------      ----- ------------  ---------------
   201      3.429695   5 C  pz               63      3.397102   2 C  pz        
   247     -3.383936   6 C  pz              109     -3.296760   3 C  pz        
    60      0.700604   2 C  pz              244     -0.692048   6 C  pz        
   198      0.646987   5 C  pz              106     -0.627160   3 C  pz        
    77     -0.384569   2 C  d  1            215      0.368072   5 C  d  1      
 
 Vector   42  Occ=0.000000D+00  E= 1.089649D-01
              MO Center=  2.0D-02, -4.7D-01,  2.2D-03, r^2= 2.1D+01
   Bfn.  Coefficient  Atom+Function         Bfn.  Coefficient  Atom+Function  
  ----- ------------  ---------------      ----- ------------  ---------------
   155      5.321748   4 C  pz              109     -3.505424   3 C  pz        
   201     -3.383734   5 C  pz               17      2.508734   1 C  pz        
   152      0.982786   4 C  pz              106     -0.613611   3 C  pz        
   198     -0.593745   5 C  pz              167      0.569261   4 C  d -1      
   247     -0.539080   6 C  pz               14      0.504948   1 C  pz        
 
 Vector   43  Occ=0.000000D+00  E= 1.094925D-01
              MO Center=  2.9D-02, -4.5D-01, -1.2D-03, r^2= 2.7D+01
   Bfn.  Coefficient  Atom+Function         Bfn.  Coefficient  Atom+Function  
  ----- ------------  ---------------      ----- ------------  ---------------
   326      7.669533   9 H  s               154      7.055691   4 C  py        
   303     -6.484510   8 H  s               349     -6.470450  10 H  s         
   143     -5.603683   4 C  s               108     -4.452307   3 C  py        
    62     -4.148751   2 C  py              200     -4.162483   5 C  py        
   246     -4.142488   6 C  py                4      3.926437   1 C  s         
 
 Vector   44  Occ=0.000000D+00  E= 1.177937D-01
              MO Center= -4.3D-02,  6.5D-01, -4.2D-04, r^2= 1.4D+01
   Bfn.  Coefficient  Atom+Function         Bfn.  Coefficient  Atom+Function  
  ----- ------------  ---------------      ----- ------------  ---------------
    17      6.876736   1 C  pz               63     -6.019738   2 C  pz        
   247     -6.020295   6 C  pz              109      5.050738   3 C  pz        
   201      5.047641   5 C  pz              155     -4.819446   4 C  pz        
    14      1.235237   1 C  pz               60     -1.019727   2 C  pz        
   244     -1.020016   6 C  pz              106      0.891841   3 C  pz        
 
 Vector   45  Occ=0.000000D+00  E= 1.264038D-01
              MO Center= -2.5D-02,  2.9D-01, -2.2D-05, r^2= 2.5D+01
   Bfn.  Coefficient  Atom+Function         Bfn.  Coefficient  Atom+Function  
  ----- ------------  ---------------      ----- ------------  ---------------
    51      7.574413   2 C  s               235     -7.606306   6 C  s         
   107      7.230665   3 C  px              199      7.090323   5 C  px        
   245     -7.016192   6 C  px               61     -6.938389   2 C  px        
    15      6.440349   1 C  px               97     -6.210151   3 C  s         
   189      6.175462   5 C  s               153     -5.811527   4 C  px        
 
 Vector   46  Occ=0.000000D+00  E= 1.274464D-01
              MO Center= -3.7D-03,  1.9D-01,  1.3D-04, r^2= 2.6D+01
   Bfn.  Coefficient  Atom+Function         Bfn.  Coefficient  Atom+Function  
  ----- ------------  ---------------      ----- ------------  ---------------
   154     -8.025863   4 C  py               16      7.421576   1 C  py        
   108      6.872149   3 C  py               62     -6.565523   2 C  py        
   200      6.577148   5 C  py              246     -6.383404   6 C  py        
   326     -4.049608   9 H  s                 5      3.558439   1 C  s         
   349      3.189849  10 H  s               303      3.138382   8 H  s         
 
 Vector   47  Occ=0.000000D+00  E= 1.609408D-01
              MO Center= -7.1D-03,  1.4D-01,  9.5D-05, r^2= 1.7D+01
   Bfn.  Coefficient  Atom+Function         Bfn.  Coefficient  Atom+Function  
  ----- ------------  ---------------      ----- ------------  ---------------
    17      8.197067   1 C  pz               63     -8.002364   2 C  pz        
   247     -8.012458   6 C  pz              155     -7.858110   4 C  pz        
   109      7.769608   3 C  pz              201      7.776291   5 C  pz        
    60     -1.191901   2 C  pz              106      1.191819   3 C  pz        
   198      1.193476   5 C  pz              244     -1.193734   6 C  pz        
 
 Vector   48  Occ=0.000000D+00  E= 1.660228D-01
              MO Center= -9.5D-02,  1.4D+00,  3.1D-04, r^2= 2.2D+01
   Bfn.  Coefficient  Atom+Function         Bfn.  Coefficient  Atom+Function  
  ----- ------------  ---------------      ----- ------------  ---------------
     5     59.203826   1 C  s               235    -26.156983   6 C  s         
   143     25.974843   4 C  s                51    -25.814618   2 C  s         
    97    -14.525695   3 C  s               189    -14.296958   5 C  s         
   154      7.427995   4 C  py              245      6.797953   6 C  px        
    61     -6.409375   2 C  px              326      6.155610   9 H  s         
 
 Vector   49  Occ=0.000000D+00  E= 1.754179D-01
              MO Center=  2.5D-02, -3.9D-01, -1.7D-04, r^2= 1.1D+01
   Bfn.  Coefficient  Atom+Function         Bfn.  Coefficient  Atom+Function  
  ----- ------------  ---------------      ----- ------------  ---------------
   335      1.104751   9 H  pz              312      1.079294   8 H  pz        
   358      1.079455  10 H  pz              289      0.972421   7 H  pz        
   381      0.973020  11 H  pz               17      0.953506   1 C  pz        
    63     -0.877424   2 C  pz              247     -0.880694   6 C  pz        
   106     -0.842499   3 C  pz              198     -0.845383   5 C  pz        
 
 Vector   50  Occ=0.000000D+00  E= 1.864091D-01
              MO Center=  4.1D-02, -5.5D-01,  9.7D-05, r^2= 1.5D+01
   Bfn.  Coefficient  Atom+Function         Bfn.  Coefficient  Atom+Function  
  ----- ------------  ---------------      ----- ------------  ---------------
     5     15.537358   1 C  s                97     -7.260806   3 C  s         
   189     -7.294163   5 C  s                51     -4.637237   2 C  s         
   325      4.419506   9 H  s               235     -4.362968   6 C  s         
    62     -4.031084   2 C  py              154      3.990456   4 C  py        
   246     -3.834388   6 C  py              302      3.301557   8 H  s         
 
 Vector   51  Occ=0.000000D+00  E= 1.980353D-01
              MO Center= -3.1D-02,  4.7D-01,  3.5D-04, r^2= 2.3D+01
   Bfn.  Coefficient  Atom+Function         Bfn.  Coefficient  Atom+Function  
  ----- ------------  ---------------      ----- ------------  ---------------
    51     44.617728   2 C  s               235    -44.583429   6 C  s         
    97     25.223636   3 C  s               189    -25.170218   5 C  s         
    15     18.493104   1 C  px              153     17.066465   4 C  px        
   302    -13.979062   8 H  s               348     14.042605  10 H  s         
   200      9.237934   5 C  py              108     -8.497899   3 C  py        
 
 Vector   52  Occ=0.000000D+00  E= 1.984341D-01
              MO Center=  4.9D-02, -7.3D-01, -5.0D-04, r^2= 2.3D+01
   Bfn.  Coefficient  Atom+Function         Bfn.  Coefficient  Atom+Function  
  ----- ------------  ---------------      ----- ------------  ---------------
   143     61.326200   4 C  s               235    -34.725655   6 C  s         
    51    -34.346317   2 C  s               325    -16.865900   9 H  s         
    62     14.676346   2 C  py              246     14.506413   6 C  py        
   200     13.799972   5 C  py              108     12.524314   3 C  py        
     5    -11.586395   1 C  s               371     11.229846  11 H  s         
 
 Vector   53  Occ=0.000000D+00  E= 2.154159D-01
              MO Center=  7.2D-02, -1.4D+00, -3.5D-05, r^2= 1.5D+01
   Bfn.  Coefficient  Atom+Function         Bfn.  Coefficient  Atom+Function  
  ----- ------------  ---------------      ----- ------------  ---------------
    97     13.922807   3 C  s               189    -13.774806   5 C  s         
    96      6.632388   3 C  s               188     -6.452653   5 C  s         
   153      6.327746   4 C  px              279     -5.285665   7 H  s         
   371      4.975425  11 H  s               303      4.733425   8 H  s         
   349     -4.726216  10 H  s               246     -4.662659   6 C  py        
 
 Vector   54  Occ=0.000000D+00  E= 2.182414D-01
              MO Center=  2.1D-04, -2.8D-01, -1.0D-04, r^2= 1.5D+01
   Bfn.  Coefficient  Atom+Function         Bfn.  Coefficient  Atom+Function  
  ----- ------------  ---------------      ----- ------------  ---------------
   143     25.526672   4 C  s               235    -20.241847   6 C  s         
     5     15.875585   1 C  s                51    -14.999299   2 C  s         
    16     -6.329421   1 C  py              325     -5.989463   9 H  s         
    62      5.360260   2 C  py              200      4.149482   5 C  py        
   246      4.089525   6 C  py              371      3.950116  11 H  s         
 
 Vector   55  Occ=0.000000D+00  E= 2.191084D-01
              MO Center=  2.3D-02, -9.3D-02,  9.9D-04, r^2= 1.5D+01
   Bfn.  Coefficient  Atom+Function         Bfn.  Coefficient  Atom+Function  
  ----- ------------  ---------------      ----- ------------  ---------------
    51     21.823954   2 C  s               235    -17.440205   6 C  s         
   108     -8.821454   3 C  py              200      7.603721   5 C  py        
    15      7.405011   1 C  px              302     -6.886594   8 H  s         
   348      6.883443  10 H  s               153      6.207269   4 C  px        
   246     -4.574415   6 C  py              199     -3.693357   5 C  px        
 
 Vector   56  Occ=0.000000D+00  E= 2.301159D-01
              MO Center=  3.8D-02,  2.9D-01,  1.9D-03, r^2= 1.8D+01
   Bfn.  Coefficient  Atom+Function         Bfn.  Coefficient  Atom+Function  
  ----- ------------  ---------------      ----- ------------  ---------------
   199      5.117549   5 C  px              107      4.428453   3 C  px        
   153     -3.561234   4 C  px              234      3.346031   6 C  s         
   349     -3.276285  10 H  s                50     -3.199614   2 C  s         
   303      3.040332   8 H  s                15     -2.621867   1 C  px        
   108      2.520613   3 C  py              150      1.945551   4 C  px        
 
 Vector   57  Occ=0.000000D+00  E= 2.311926D-01
              MO Center= -6.5D-04,  2.0D-03, -3.7D-03, r^2= 1.6D+01
   Bfn.  Coefficient  Atom+Function         Bfn.  Coefficient  Atom+Function  
  ----- ------------  ---------------      ----- ------------  ---------------
   106      2.138432   3 C  pz              198     -2.145697   5 C  pz        
    60      2.050395   2 C  pz              244     -2.045077   6 C  pz        
   312     -1.818754   8 H  pz              358      1.817383  10 H  pz        
   289     -1.719322   7 H  pz              381      1.721886  11 H  pz        
   169     -1.379408   4 C  d  1             31     -1.247437   1 C  d  1      
 
 Vector   58  Occ=0.000000D+00  E= 2.354075D-01
              MO Center= -1.7D-02,  2.2D-01,  6.1D-04, r^2= 1.6D+01
   Bfn.  Coefficient  Atom+Function         Bfn.  Coefficient  Atom+Function  
  ----- ------------  ---------------      ----- ------------  ---------------
   143     14.862152   4 C  s               235    -13.465458   6 C  s         
   107     -8.348622   3 C  px              199      7.440440   5 C  px        
    51     -7.369856   2 C  s                61      5.446685   2 C  px        
   245     -5.330230   6 C  px              303     -4.827115   8 H  s         
   200      4.535178   5 C  py                5      4.034698   1 C  s         
 
 Vector   59  Occ=0.000000D+00  E= 2.365089D-01
              MO Center= -5.1D-02,  6.7D-02,  8.2D-04, r^2= 1.7D+01
   Bfn.  Coefficient  Atom+Function         Bfn.  Coefficient  Atom+Function  
  ----- ------------  ---------------      ----- ------------  ---------------
    97    -33.072519   3 C  s               189     32.999657   5 C  s         
    51     32.369794   2 C  s               235    -30.397210   6 C  s         
   188     14.460824   5 C  s                96    -14.187337   3 C  s         
   371    -11.008883  11 H  s               348     10.654912  10 H  s         
   279     10.504198   7 H  s               302    -10.553035   8 H  s         
 
 Vector   60  Occ=0.000000D+00  E= 2.434355D-01
              MO Center=  5.1D-03, -4.4D-02, -4.3D-04, r^2= 1.5D+01
   Bfn.  Coefficient  Atom+Function         Bfn.  Coefficient  Atom+Function  
  ----- ------------  ---------------      ----- ------------  ---------------
   152      3.414986   4 C  pz               14     -3.023756   1 C  pz        
   289      2.169033   7 H  pz              381      2.172417  11 H  pz        
   335     -2.124853   9 H  pz              261      2.001299   6 C  d  1      
    77     -1.985541   2 C  d  1             63     -1.596670   2 C  pz        
   247     -1.601390   6 C  pz              155      1.372277   4 C  pz        
 
 Vector   61  Occ=0.000000D+00  E= 2.594892D-01
              MO Center=  4.4D-02, -6.0D-01,  6.6D-05, r^2= 1.7D+01
   Bfn.  Coefficient  Atom+Function         Bfn.  Coefficient  Atom+Function  
  ----- ------------  ---------------      ----- ------------  ---------------
     5      8.750059   1 C  s               108     -6.645699   3 C  py        
   200     -6.065110   5 C  py              303     -5.184748   8 H  s         
   349     -5.189377  10 H  s               199      5.127609   5 C  px        
   197     -4.806702   5 C  py              105     -4.763021   3 C  py        
   143     -4.775048   4 C  s               154      4.384311   4 C  py        
 
 Vector   62  Occ=0.000000D+00  E= 2.620171D-01
              MO Center=  6.2D-02, -1.1D+00, -5.3D-05, r^2= 1.7D+01
   Bfn.  Coefficient  Atom+Function         Bfn.  Coefficient  Atom+Function  
  ----- ------------  ---------------      ----- ------------  ---------------
     5     18.949854   1 C  s               154     15.376902   4 C  py        
   143     15.162657   4 C  s               235    -14.931068   6 C  s         
    51    -14.192310   2 C  s               326      9.180238   9 H  s         
     4      6.019083   1 C  s               108     -4.871005   3 C  py        
    97     -4.832570   3 C  s               189     -4.478080   5 C  s         
 
 Vector   63  Occ=0.000000D+00  E= 2.676627D-01
              MO Center= -1.2D-02,  4.3D-01,  6.6D-05, r^2= 2.0D+01
   Bfn.  Coefficient  Atom+Function         Bfn.  Coefficient  Atom+Function  
  ----- ------------  ---------------      ----- ------------  ---------------
    51     20.412649   2 C  s               235    -19.983210   6 C  s         
   189     12.024592   5 C  s                97    -11.806688   3 C  s         
    61     11.041079   2 C  px              245     10.238133   6 C  px        
    96     -8.820042   3 C  s               371     -8.814690  11 H  s         
   188      8.691216   5 C  s               279      8.713189   7 H  s         
 
 Vector   64  Occ=0.000000D+00  E= 2.747844D-01
              MO Center=  8.4D-03,  2.4D-02,  6.7D-05, r^2= 1.4D+01
   Bfn.  Coefficient  Atom+Function         Bfn.  Coefficient  Atom+Function  
  ----- ------------  ---------------      ----- ------------  ---------------
   143      8.950264   4 C  s                 5      8.698519   1 C  s         
   154      5.758346   4 C  py              279     -5.638625   7 H  s         
   371     -5.666272  11 H  s               348     -4.782948  10 H  s         
   302     -4.514719   8 H  s               325     -4.359067   9 H  s         
    16     -4.027870   1 C  py              246      3.234144   6 C  py        
 
 Vector   65  Occ=0.000000D+00  E= 2.829762D-01
              MO Center= -3.6D-02,  1.8D-01, -1.6D-05, r^2= 1.6D+01
   Bfn.  Coefficient  Atom+Function         Bfn.  Coefficient  Atom+Function  
  ----- ------------  ---------------      ----- ------------  ---------------
    12      9.526834   1 C  px              189     -8.936282   5 C  s         
    97      8.859406   3 C  s               302      8.203740   8 H  s         
   235      8.041334   6 C  s                51     -7.991939   2 C  s         
   348     -7.985959  10 H  s               199      7.576260   5 C  px        
   107      7.208262   3 C  px              150      6.191131   4 C  px        
 
 Vector   66  Occ=0.000000D+00  E= 2.954287D-01
              MO Center= -7.7D-03,  5.0D-02, -2.8D-05, r^2= 1.6D+01
   Bfn.  Coefficient  Atom+Function         Bfn.  Coefficient  Atom+Function  
  ----- ------------  ---------------      ----- ------------  ---------------
    63      3.212360   2 C  pz              109     -3.187934   3 C  pz        
   201      3.189392   5 C  pz              247     -3.189914   6 C  pz        
   289     -2.282075   7 H  pz              312      2.267428   8 H  pz        
   381      2.272558  11 H  pz               60      2.253117   2 C  pz        
   244     -2.260355   6 C  pz              358     -2.259256  10 H  pz        
 
 Vector   67  Occ=0.000000D+00  E= 2.962820D-01
              MO Center= -5.0D-02,  9.6D-01,  4.1D-04, r^2= 1.4D+01
   Bfn.  Coefficient  Atom+Function         Bfn.  Coefficient  Atom+Function  
  ----- ------------  ---------------      ----- ------------  ---------------
     4     10.430987   1 C  s                59     -5.696494   2 C  py        
   243     -5.672517   6 C  py                5      5.524809   1 C  s         
   105     -5.527465   3 C  py              197     -5.134475   5 C  py        
    16      4.274625   1 C  py              371     -4.215810  11 H  s         
   279     -4.154585   7 H  s                13      3.921179   1 C  py        
 
 Vector   68  Occ=0.000000D+00  E= 3.080507D-01
              MO Center=  4.9D-02, -2.7D-01, -4.5D-04, r^2= 1.5D+01
   Bfn.  Coefficient  Atom+Function         Bfn.  Coefficient  Atom+Function  
  ----- ------------  ---------------      ----- ------------  ---------------
   155      5.181091   4 C  pz               14      4.364965   1 C  pz        
   109     -3.746127   3 C  pz              201     -3.740688   5 C  pz        
   335     -2.709356   9 H  pz              244     -2.067305   6 C  pz        
    60     -2.033012   2 C  pz              152      1.849754   4 C  pz        
    17      1.835987   1 C  pz               29     -1.719096   1 C  d -1      
 
 Vector   69  Occ=0.000000D+00  E= 3.150356D-01
              MO Center= -3.6D-02, -7.5D-02,  1.5D-05, r^2= 9.1D+00
   Bfn.  Coefficient  Atom+Function         Bfn.  Coefficient  Atom+Function  
  ----- ------------  ---------------      ----- ------------  ---------------
   261      1.236390   6 C  d  1             77      1.144697   2 C  d  1      
   169     -1.080250   4 C  d  1             75     -1.072105   2 C  d -1      
   259      0.825781   6 C  d -1            381      0.749102  11 H  pz        
   289     -0.695538   7 H  pz               31      0.632677   1 C  d  1      
    60     -0.336507   2 C  pz              244      0.334689   6 C  pz        
 
 Vector   70  Occ=0.000000D+00  E= 3.284556D-01
              MO Center=  3.4D-02, -6.2D-01,  6.7D-05, r^2= 1.5D+01
   Bfn.  Coefficient  Atom+Function         Bfn.  Coefficient  Atom+Function  
  ----- ------------  ---------------      ----- ------------  ---------------
   142     12.146155   4 C  s                96      8.736448   3 C  s         
   188      8.691912   5 C  s               151     -6.842857   4 C  py        
   325     -5.847417   9 H  s                 4     -5.234611   1 C  s         
   334     -5.005927   9 H  py                5      4.900957   1 C  s         
   302     -4.407007   8 H  s               348     -4.370140  10 H  s         
 
 Vector   71  Occ=0.000000D+00  E= 3.347348D-01
              MO Center= -2.0D-03,  2.5D-02,  1.9D-04, r^2= 7.7D+00
   Bfn.  Coefficient  Atom+Function         Bfn.  Coefficient  Atom+Function  
  ----- ------------  ---------------      ----- ------------  ---------------
   289      2.034549   7 H  pz              381      2.031600  11 H  pz        
   335      1.841547   9 H  pz               14     -1.758473   1 C  pz        
   155     -1.721509   4 C  pz               63     -1.565700   2 C  pz        
   247     -1.567538   6 C  pz               77     -1.509585   2 C  d  1      
   261      1.403958   6 C  d  1            106     -1.278020   3 C  pz        
 
 Vector   72  Occ=0.000000D+00  E= 3.433113D-01
              MO Center=  4.0D-02, -3.8D-01, -4.5D-03, r^2= 1.2D+01
   Bfn.  Coefficient  Atom+Function         Bfn.  Coefficient  Atom+Function  
  ----- ------------  ---------------      ----- ------------  ---------------
   169      3.290468   4 C  d  1             31      2.703922   1 C  d  1      
   358      2.499416  10 H  pz              312     -2.454213   8 H  pz        
   215      2.192457   5 C  d  1            123      2.129504   3 C  d  1      
   198      1.832218   5 C  pz              106     -1.762756   3 C  pz        
   381      1.441963  11 H  pz              289     -1.422777   7 H  pz        
 
 Vector   73  Occ=0.000000D+00  E= 3.449172D-01
              MO Center= -3.1D-02,  5.6D-01, -2.1D-03, r^2= 1.2D+01
   Bfn.  Coefficient  Atom+Function         Bfn.  Coefficient  Atom+Function  
  ----- ------------  ---------------      ----- ------------  ---------------
   143     23.691227   4 C  s               325    -13.016891   9 H  s         
   371     11.960963  11 H  s               235    -11.831568   6 C  s         
   279     11.873797   7 H  s                51    -11.667575   2 C  s         
     5     -7.717055   1 C  s               197     -6.943566   5 C  py        
   105     -6.761522   3 C  py              243     -6.060983   6 C  py        
 
 Vector   74  Occ=0.000000D+00  E= 3.478075D-01
              MO Center= -5.4D-03, -1.5D-01,  4.1D-03, r^2= 1.2D+01
   Bfn.  Coefficient  Atom+Function         Bfn.  Coefficient  Atom+Function  
  ----- ------------  ---------------      ----- ------------  ---------------
   235    -21.599793   6 C  s                51     20.740862   2 C  s         
   348     12.038152  10 H  s               302    -11.917145   8 H  s         
   189    -11.058550   5 C  s                97     10.810906   3 C  s         
   279    -10.009520   7 H  s               371      9.497587  11 H  s         
    12     -8.108100   1 C  px              150     -7.016438   4 C  px        
 
 Vector   75  Occ=0.000000D+00  E= 3.481518D-01
              MO Center=  1.8D-02, -5.3D-01,  3.1D-03, r^2= 1.3D+01
   Bfn.  Coefficient  Atom+Function         Bfn.  Coefficient  Atom+Function  
  ----- ------------  ---------------      ----- ------------  ---------------
   155     -3.939788   4 C  pz               17      3.748457   1 C  pz        
   109      3.529143   3 C  pz              201      3.532920   5 C  pz        
    63     -3.413152   2 C  pz              247     -3.425176   6 C  pz        
   152     -3.005204   4 C  pz              213     -2.295496   5 C  d -1      
   289      2.291658   7 H  pz              381      2.230848  11 H  pz        
 
 Vector   76  Occ=0.000000D+00  E= 3.527367D-01
              MO Center=  3.2D-02, -5.2D-01, -1.8D-04, r^2= 1.4D+01
   Bfn.  Coefficient  Atom+Function         Bfn.  Coefficient  Atom+Function  
  ----- ------------  ---------------      ----- ------------  ---------------
    17      6.408940   1 C  pz               63     -5.864454   2 C  pz        
   247     -5.884781   6 C  pz              109      5.131905   3 C  pz        
   201      5.152818   5 C  pz              155     -4.870716   4 C  pz        
   335      3.946798   9 H  pz               14      3.807505   1 C  pz        
   167      3.062568   4 C  d -1            244     -2.713272   6 C  pz        
 
 Vector   77  Occ=0.000000D+00  E= 3.546354D-01
              MO Center= -9.6D-03,  3.2D-01, -6.8D-04, r^2= 1.5D+01
   Bfn.  Coefficient  Atom+Function         Bfn.  Coefficient  Atom+Function  
  ----- ------------  ---------------      ----- ------------  ---------------
     5     31.327288   1 C  s                51    -16.210488   2 C  s         
   143     15.925594   4 C  s               235    -15.301499   6 C  s         
   151    -11.060575   4 C  py              234      7.587065   6 C  s         
   196     -7.451695   5 C  px               13      7.292484   1 C  py        
   104      7.299948   3 C  px              371     -7.290123  11 H  s         
 
 Vector   78  Occ=0.000000D+00  E= 3.598953D-01
              MO Center= -3.7D-02,  7.5D-01,  2.2D-04, r^2= 1.3D+01
   Bfn.  Coefficient  Atom+Function         Bfn.  Coefficient  Atom+Function  
  ----- ------------  ---------------      ----- ------------  ---------------
   289      3.400446   7 H  pz              381     -3.410365  11 H  pz        
    60      3.207783   2 C  pz               77     -3.109259   2 C  d  1      
   121     -3.097164   3 C  d -1            244     -3.103282   6 C  pz        
   259      3.021772   6 C  d -1            106     -2.769199   3 C  pz        
   213      2.777100   5 C  d -1            358      2.779346  10 H  pz        
 
 Vector   79  Occ=0.000000D+00  E= 3.685340D-01
              MO Center=  9.7D-03, -5.8D-01, -1.5D-04, r^2= 1.3D+01
   Bfn.  Coefficient  Atom+Function         Bfn.  Coefficient  Atom+Function  
  ----- ------------  ---------------      ----- ------------  ---------------
    96     10.713161   3 C  s               188     10.732629   5 C  s         
   104     -8.527898   3 C  px              196      8.462677   5 C  px        
   142     -7.530598   4 C  s                 5      7.190298   1 C  s         
   120     -5.342190   3 C  d -2            212      5.263878   5 C  d -2      
   258      5.256284   6 C  d -2             58      5.078695   2 C  px        
 
 Vector   80  Occ=0.000000D+00  E= 3.720860D-01
              MO Center=  4.6D-02, -3.1D-01, -2.1D-04, r^2= 1.3D+01
   Bfn.  Coefficient  Atom+Function         Bfn.  Coefficient  Atom+Function  
  ----- ------------  ---------------      ----- ------------  ---------------
   189     -9.862742   5 C  s                97      9.813486   3 C  s         
    50      9.069016   2 C  s               234     -8.961111   6 C  s         
   279     -5.551807   7 H  s               371      5.408646  11 H  s         
   357      5.367625  10 H  py              212     -5.019430   5 C  d -2      
   311     -4.993579   8 H  py               51     -4.803478   2 C  s         
 
 Vector   81  Occ=0.000000D+00  E= 3.819115D-01
              MO Center=  2.9D-02, -5.7D-01, -2.4D-06, r^2= 1.6D+01
   Bfn.  Coefficient  Atom+Function         Bfn.  Coefficient  Atom+Function  
  ----- ------------  ---------------      ----- ------------  ---------------
   166      9.075227   4 C  d -2            333      7.118371   9 H  px        
   150     -6.665086   4 C  px              216     -6.564037   5 C  d  2      
   124      6.080100   3 C  d  2            279      5.867820   7 H  s         
   371     -5.874703  11 H  s               310      5.086469   8 H  px        
   356      5.021088  10 H  px              188      4.904245   5 C  s         
 
 Vector   82  Occ=0.000000D+00  E= 3.932520D-01
              MO Center= -3.7D-02,  4.6D-01,  2.0D-04, r^2= 1.5D+01
   Bfn.  Coefficient  Atom+Function         Bfn.  Coefficient  Atom+Function  
  ----- ------------  ---------------      ----- ------------  ---------------
    12     12.189561   1 C  px               51    -11.150711   2 C  s         
   235     10.996444   6 C  s                78     -9.196780   2 C  d  2      
   262      8.627109   6 C  d  2             15     -6.837224   1 C  px        
   216      6.700023   5 C  d  2            153     -5.869416   4 C  px        
   379     -5.813957  11 H  px              124     -5.769192   3 C  d  2      
 
 Vector   83  Occ=0.000000D+00  E= 3.960429D-01
              MO Center= -5.0D-02,  8.3D-01,  1.9D-04, r^2= 1.2D+01
   Bfn.  Coefficient  Atom+Function         Bfn.  Coefficient  Atom+Function  
  ----- ------------  ---------------      ----- ------------  ---------------
   152     -7.532285   4 C  pz              106      7.330395   3 C  pz        
   198      7.347482   5 C  pz               60     -6.482132   2 C  pz        
   244     -6.479177   6 C  pz              167     -6.334533   4 C  d -1      
   215      5.117769   5 C  d  1            123     -4.712288   3 C  d  1      
    14      4.575479   1 C  pz              259      4.042041   6 C  d -1      
 
 Vector   84  Occ=0.000000D+00  E= 4.017308D-01
              MO Center= -3.4D-02,  5.2D-01, -7.2D-04, r^2= 1.5D+01
   Bfn.  Coefficient  Atom+Function         Bfn.  Coefficient  Atom+Function  
  ----- ------------  ---------------      ----- ------------  ---------------
     5     51.584171   1 C  s                51    -19.848501   2 C  s         
   235    -19.609792   6 C  s                97    -17.551842   3 C  s         
   189    -17.148464   5 C  s               143     11.599730   4 C  s         
   142    -10.291202   4 C  s                 4     -9.650059   1 C  s         
   234     -7.993496   6 C  s                50     -7.847616   2 C  s         
 
 Vector   85  Occ=0.000000D+00  E= 4.052853D-01
              MO Center=  8.7D-03,  9.1D-02, -6.9D-05, r^2= 1.3D+01
   Bfn.  Coefficient  Atom+Function         Bfn.  Coefficient  Atom+Function  
  ----- ------------  ---------------      ----- ------------  ---------------
     5     33.918565   1 C  s               143     17.777790   4 C  s         
    51    -13.307761   2 C  s               235    -12.728256   6 C  s         
   188     10.037198   5 C  s                96      9.949703   3 C  s         
    97     -7.543190   3 C  s               189     -7.507847   5 C  s         
   262      7.113898   6 C  d  2             78      6.772432   2 C  d  2      
 
 Vector   86  Occ=0.000000D+00  E= 4.130575D-01
[...]
     Occ.   19 beta  a   ---  Virt.   24 beta  a   -0.21744 X
     Occ.   20 beta  a   ---  Virt.   22 beta  a    0.14235 X
  ----------------------------------------------------------------------------
  Root  27         a              0.251966623 a.u.                6.8564 eV 
  <S2> =   1.6617
  ----------------------------------------------------------------------------
     Transition Moments    X -0.00002   Y -0.00000   Z -0.24430
     Transition Moments   XX -0.00004  XY  0.00006  XZ  0.03354
     Transition Moments   YY -0.00012  YZ -0.16553  ZZ -0.00003
     Dipole Oscillator Strength                    0.0100250962
     Electric Quadrupole                           0.0000000024
     Magnetic Dipole                               0.0000000310
     Total Oscillator Strength                     0.0100251297
 
     Occ.   19 alpha a   ---  Virt.   26 alpha a   -0.97510 X
     Occ.   19 alpha a   ---  Virt.   35 alpha a    0.07064 X
     Occ.   19 alpha a   ---  Virt.   36 alpha a    0.07315 X
     Occ.   20 alpha a   ---  Virt.   25 alpha a   -0.11685 X
     Occ.   20 alpha a   ---  Virt.   26 alpha a   -0.11645 X
     Occ.   20 beta  a   ---  Virt.   26 beta  a   -0.05063 X
  ----------------------------------------------------------------------------
  Root  28         a              0.252670486 a.u.                6.8755 eV 
  <S2> =   1.8936
  ----------------------------------------------------------------------------
     Transition Moments    X -0.00003   Y -0.00001   Z -0.01314
     Transition Moments   XX -0.00001  XY  0.00002  XZ -0.39131
     Transition Moments   YY -0.00008  YZ -0.03407  ZZ -0.00002
     Dipole Oscillator Strength                    0.0000290812
     Electric Quadrupole                           0.0000000133
     Magnetic Dipole                               0.0000000097
     Total Oscillator Strength                     0.0000291041
 
     Occ.   19 alpha a   ---  Virt.   25 alpha a    0.24483 X
     Occ.   19 alpha a   ---  Virt.   26 alpha a   -0.11608 X
     Occ.   20 alpha a   ---  Virt.   26 alpha a    0.95371 X
     Occ.   20 alpha a   ---  Virt.   35 alpha a   -0.06108 X
     Occ.   20 alpha a   ---  Virt.   36 alpha a   -0.06504 X
     Occ.   19 beta  a   ---  Virt.   26 beta  a   -0.06743 X
  ----------------------------------------------------------------------------
  Root  29         a              0.253988828 a.u.                6.9114 eV 
  <S2> =   1.6128
  ----------------------------------------------------------------------------
     Transition Moments    X  0.00005   Y -0.00002   Z -0.00068
     Transition Moments   XX -0.00003  XY  0.00005  XZ -0.49463
     Transition Moments   YY -0.00011  YZ -0.03109  ZZ -0.00003
     Dipole Oscillator Strength                    0.0000000795
     Electric Quadrupole                           0.0000000214
     Magnetic Dipole                               0.0000000110
     Total Oscillator Strength                     0.0000001119
 
     Occ.   20 alpha a   ---  Virt.   26 alpha a    0.07173 X
     Occ.   19 beta  a   ---  Virt.   26 beta  a    0.98505 X
     Occ.   19 beta  a   ---  Virt.   35 beta  a   -0.05777 X
     Occ.   19 beta  a   ---  Virt.   36 beta  a   -0.07403 X
     Occ.   20 beta  a   ---  Virt.   25 beta  a    0.09667 X
  ----------------------------------------------------------------------------
  Root  30         a              0.254730878 a.u.                6.9316 eV 
  <S2> =   0.7699
  ----------------------------------------------------------------------------
     Transition Moments    X -1.50566   Y -0.10357   Z  0.00002
     Transition Moments   XX -0.02811  XY  0.18586  XZ -0.00004
     Transition Moments   YY  0.01516  YZ  0.00002  ZZ  0.00005
     Dipole Oscillator Strength                    0.3868044626
     Electric Quadrupole                           0.0000000031
     Magnetic Dipole                               0.0000000175
     Total Oscillator Strength                     0.3868044832
 
     Occ.   19 alpha a   ---  Virt.   22 alpha a   -0.38025 X
     Occ.   19 alpha a   ---  Virt.   22 alpha a    0.05316 Y
     Occ.   20 alpha a   ---  Virt.   23 alpha a    0.42747 X
     Occ.   20 alpha a   ---  Virt.   23 alpha a   -0.05110 Y
     Occ.   20 alpha a   ---  Virt.   29 alpha a   -0.14037 X
     Occ.   21 alpha a   ---  Virt.   25 alpha a    0.07576 X
     Occ.   21 alpha a   ---  Virt.   27 alpha a   -0.38371 X
     Occ.   13 beta  a   ---  Virt.   21 beta  a    0.12668 X
     Occ.   15 beta  a   ---  Virt.   21 beta  a    0.27168 X
     Occ.   19 beta  a   ---  Virt.   24 beta  a    0.49963 X
     Occ.   19 beta  a   ---  Virt.   29 beta  a   -0.13940 X
     Occ.   20 beta  a   ---  Virt.   22 beta  a   -0.34941 X
     Occ.   20 beta  a   ---  Virt.   22 beta  a    0.05625 Y
  ----------------------------------------------------------------------------
  Root  31         a              0.255323883 a.u.                6.9477 eV 
  <S2> =   0.8003
  ----------------------------------------------------------------------------
     Transition Moments    X -0.04553   Y  0.63522   Z  0.00000
     Transition Moments   XX  0.65120  XY -0.07552  XZ -0.00002
     Transition Moments   YY  1.88743  YZ  0.00003  ZZ  0.14718
     Dipole Oscillator Strength                    0.0690356156
     Electric Quadrupole                           0.0000000716
     Magnetic Dipole                               0.0000000000
     Total Oscillator Strength                     0.0690356872
 
     Occ.   19 alpha a   ---  Virt.   23 alpha a   -0.10512 X
     Occ.   20 alpha a   ---  Virt.   22 alpha a   -0.11449 X
     Occ.   21 alpha a   ---  Virt.   26 alpha a   -0.18444 X
     Occ.   21 alpha a   ---  Virt.   28 alpha a    0.91017 X
     Occ.   21 alpha a   ---  Virt.   30 alpha a    0.12828 X
     Occ.   21 alpha a   ---  Virt.   31 alpha a    0.16295 X
     Occ.   21 alpha a   ---  Virt.   48 alpha a   -0.05655 X
     Occ.   16 beta  a   ---  Virt.   21 beta  a   -0.18744 X
     Occ.   19 beta  a   ---  Virt.   22 beta  a   -0.10935 X
     Occ.   20 beta  a   ---  Virt.   24 beta  a   -0.09602 X
  ----------------------------------------------------------------------------
  Root  32         a              0.260670750 a.u.                7.0932 eV 
  <S2> =   0.7993
  ----------------------------------------------------------------------------
     Transition Moments    X  0.00001   Y -0.00001   Z  0.09570
     Transition Moments   XX -0.00001  XY -0.00001  XZ -0.04643
     Transition Moments   YY -0.00004  YZ  0.70582  ZZ  0.00000
     Dipole Oscillator Strength                    0.0015914780
     Electric Quadrupole                           0.0000000472
     Magnetic Dipole                               0.0000000334
     Total Oscillator Strength                     0.0015915586
 
     Occ.   21 alpha a   ---  Virt.   29 alpha a   -0.97946 X
     Occ.   21 alpha a   ---  Virt.   33 alpha a   -0.18003 X
  ----------------------------------------------------------------------------
  Root  33         a              0.265425180 a.u.                7.2226 eV 
  <S2> =   1.7806
  ----------------------------------------------------------------------------
     Transition Moments    X -0.00001   Y -0.00001   Z -0.00029
     Transition Moments   XX  0.00006  XY -0.00002  XZ -0.54625
     Transition Moments   YY  0.00003  YZ -0.03079  ZZ  0.00004
     Dipole Oscillator Strength                    0.0000000150
     Electric Quadrupole                           0.0000000298
     Magnetic Dipole                               0.0000000005
     Total Oscillator Strength                     0.0000000454
 
     Occ.   20 beta  a   ---  Virt.   27 beta  a   -0.99107 X
     Occ.   20 beta  a   ---  Virt.   38 beta  a    0.09650 X
  ----------------------------------------------------------------------------
  Root  34         a              0.267152496 a.u.                7.2696 eV 
  <S2> =   0.8199
  ----------------------------------------------------------------------------
     Transition Moments    X -0.07807   Y  1.19823   Z -0.00000
     Transition Moments   XX -0.01050  XY  0.04017  XZ -0.00001
     Transition Moments   YY -0.69851  YZ -0.00006  ZZ -0.04386
     Dipole Oscillator Strength                    0.2567978045
     Electric Quadrupole                           0.0000000154
     Magnetic Dipole                               0.0000000000
     Total Oscillator Strength                     0.2567978200
 
     Occ.   17 alpha a   ---  Virt.   23 alpha a    0.08500 X
     Occ.   19 alpha a   ---  Virt.   23 alpha a   -0.30432 X
     Occ.   19 alpha a   ---  Virt.   29 alpha a   -0.16080 X
     Occ.   20 alpha a   ---  Virt.   22 alpha a   -0.22250 X
     Occ.   21 alpha a   ---  Virt.   28 alpha a   -0.30009 X
     Occ.   21 alpha a   ---  Virt.   30 alpha a    0.43350 X
     Occ.   21 alpha a   ---  Virt.   31 alpha a   -0.08107 X
     Occ.   14 beta  a   ---  Virt.   21 beta  a    0.08677 X
     Occ.   16 beta  a   ---  Virt.   21 beta  a   -0.49997 X
     Occ.   19 beta  a   ---  Virt.   22 beta  a   -0.22353 X
     Occ.   20 beta  a   ---  Virt.   24 beta  a   -0.30703 X
     Occ.   20 beta  a   ---  Virt.   29 beta  a   -0.34103 X
  ----------------------------------------------------------------------------
  Root  35         a              0.270842098 a.u.                7.3700 eV 
  <S2> =   2.7175
  ----------------------------------------------------------------------------
     Transition Moments    X  0.00001   Y  0.00001   Z  0.00924
     Transition Moments   XX -0.00000  XY  0.00001  XZ -0.02074
     Transition Moments   YY -0.00002  YZ  0.13191  ZZ  0.00000
     Dipole Oscillator Strength                    0.0000154089
     Electric Quadrupole                           0.0000000019
     Magnetic Dipole                               0.0000000000
     Total Oscillator Strength                     0.0000154108
 
     Occ.   20 alpha a   ---  Virt.   27 alpha a   -0.78217 X
     Occ.   20 alpha a   ---  Virt.   38 alpha a    0.08668 X
     Occ.   19 beta  a   ---  Virt.   27 beta  a    0.59590 X
     Occ.   19 beta  a   ---  Virt.   38 beta  a   -0.06996 X
     Occ.   20 beta  a   ---  Virt.   28 beta  a    0.05466 X
     Occ.   20 beta  a   ---  Virt.   30 beta  a    0.06190 X
  ----------------------------------------------------------------------------
  Root  36         a              0.271247135 a.u.                7.3810 eV 
  <S2> =   2.7412
  ----------------------------------------------------------------------------
     Transition Moments    X  0.04826   Y  0.00094   Z -0.00000
     Transition Moments   XX  0.00586  XY -0.02777  XZ  0.00001
     Transition Moments   YY -0.00423  YZ -0.00003  ZZ  0.00002
     Dipole Oscillator Strength                    0.0004212877
     Electric Quadrupole                           0.0000000001
     Magnetic Dipole                               0.0000000018
     Total Oscillator Strength                     0.0004212895
 
     Occ.   17 alpha a   ---  Virt.   22 alpha a    0.59832 X
     Occ.   17 alpha a   ---  Virt.   41 alpha a   -0.05240 X
     Occ.   19 alpha a   ---  Virt.   32 alpha a   -0.08360 X
     Occ.   20 alpha a   ---  Virt.   29 alpha a    0.16079 X
     Occ.   20 alpha a   ---  Virt.   44 alpha a   -0.22707 X
     Occ.   20 alpha a   ---  Virt.   47 alpha a    0.17372 X
     Occ.   17 beta  a   ---  Virt.   22 beta  a   -0.64452 X
     Occ.   17 beta  a   ---  Virt.   41 beta  a    0.05433 X
     Occ.   19 beta  a   ---  Virt.   29 beta  a   -0.10418 X
     Occ.   19 beta  a   ---  Virt.   44 beta  a    0.20073 X
     Occ.   19 beta  a   ---  Virt.   47 beta  a   -0.16674 X
     Occ.   20 beta  a   ---  Virt.   31 beta  a    0.10178 X
  ----------------------------------------------------------------------------
  Root  37         a              0.271694792 a.u.                7.3932 eV 
  <S2> =   1.0347
  ----------------------------------------------------------------------------
     Transition Moments    X -0.03535   Y  0.52984   Z -0.00000
     Transition Moments   XX -1.06450  XY -0.11639  XZ  0.00000
     Transition Moments   YY  0.75926  YZ -0.00002  ZZ -0.24140
     Dipole Oscillator Strength                    0.0510757893
     Electric Quadrupole                           0.0000000905
     Magnetic Dipole                               0.0000000000
     Total Oscillator Strength                     0.0510758798
 
     Occ.   17 alpha a   ---  Virt.   23 alpha a    0.06381 X
     Occ.   19 alpha a   ---  Virt.   23 alpha a   -0.09646 X
     Occ.   21 alpha a   ---  Virt.   30 alpha a   -0.79936 X
     Occ.   21 alpha a   ---  Virt.   31 alpha a    0.20707 X
     Occ.   21 alpha a   ---  Virt.   35 alpha a   -0.07548 X
     Occ.   21 alpha a   ---  Virt.   40 alpha a    0.05690 X
     Occ.   14 beta  a   ---  Virt.   21 beta  a    0.06426 X
     Occ.   16 beta  a   ---  Virt.   21 beta  a   -0.19634 X
     Occ.   19 beta  a   ---  Virt.   22 beta  a   -0.06223 X
     Occ.   20 beta  a   ---  Virt.   24 beta  a   -0.10129 X
     Occ.   20 beta  a   ---  Virt.   29 beta  a   -0.47378 X
  ----------------------------------------------------------------------------
  Root  38         a              0.271827126 a.u.                7.3968 eV 
  <S2> =   0.8176
  ----------------------------------------------------------------------------
     Transition Moments    X  0.00001   Y -0.00004   Z  0.02498
     Transition Moments   XX  0.00007  XY  0.00007  XZ -0.08380
     Transition Moments   YY -0.00012  YZ  0.87213  ZZ  0.00003
     Dipole Oscillator Strength                    0.0001131163
     Electric Quadrupole                           0.0000000821
     Magnetic Dipole                               0.0000000038
     Total Oscillator Strength                     0.0001132022
 
     Occ.   20 alpha a   ---  Virt.   27 alpha a   -0.59313 X
     Occ.   20 alpha a   ---  Virt.   38 alpha a    0.05091 X
     Occ.   19 beta  a   ---  Virt.   27 beta  a   -0.78643 X
     Occ.   19 beta  a   ---  Virt.   38 beta  a    0.07340 X
     Occ.   20 beta  a   ---  Virt.   28 beta  a    0.12720 X
  ----------------------------------------------------------------------------
  Root  39         a              0.272285127 a.u.                7.4093 eV 
  <S2> =   1.7233
  ----------------------------------------------------------------------------
     Transition Moments    X  0.00001   Y -0.00001   Z  0.00216
     Transition Moments   XX -0.00006  XY  0.00003  XZ  0.54492
     Transition Moments   YY -0.00001  YZ  0.08204  ZZ -0.00003
     Dipole Oscillator Strength                    0.0000008484
     Electric Quadrupole                           0.0000000326
     Magnetic Dipole                               0.0000000013
     Total Oscillator Strength                     0.0000008823
 
     Occ.   19 alpha a   ---  Virt.   27 alpha a    0.98974 X
     Occ.   19 alpha a   ---  Virt.   38 alpha a   -0.09584 X
  ----------------------------------------------------------------------------
  Root  40         a              0.272526171 a.u.                7.4158 eV 
  <S2> =   1.9634
  ----------------------------------------------------------------------------
     Transition Moments    X  0.00001   Y -0.00004   Z -0.04152
     Transition Moments   XX -0.00003  XY -0.00003  XZ  0.03071
     Transition Moments   YY -0.00005  YZ -0.44090  ZZ -0.00001
     Dipole Oscillator Strength                    0.0003131365
     Electric Quadrupole                           0.0000000211
     Magnetic Dipole                               0.0000000053
     Total Oscillator Strength                     0.0003131628
 
     Occ.   19 alpha a   ---  Virt.   28 alpha a    0.11725 X
     Occ.   20 alpha a   ---  Virt.   27 alpha a   -0.12811 X
     Occ.   17 beta  a   ---  Virt.   21 beta  a    0.05490 X
     Occ.   19 beta  a   ---  Virt.   27 beta  a   -0.06371 X
     Occ.   20 beta  a   ---  Virt.   28 beta  a   -0.96941 X
     Occ.   20 beta  a   ---  Virt.   30 beta  a   -0.05591 X
     Occ.   20 beta  a   ---  Virt.   32 beta  a   -0.07478 X
     Occ.   20 beta  a   ---  Virt.   43 beta  a   -0.08095 X
 
              Target root =      1
          Target symmetry = none
      Ground state energy =   -231.646314418593
        Excitation energy =      0.106135220864
     Excited state energy =   -231.540179197729
 
  stored tddft:energy   -231.540179197729     

 Task  times  cpu:     2900.2s     wall:     3009.8s
 
 
                                NWChem Input Module
                                -------------------
 
 
 Summary of allocated global arrays
-----------------------------------
  No active global arrays



                         GA Statistics for process    0
                         ------------------------------

       create   destroy   get      put      acc     scatter   gather  read&inc
calls: 9466     9466     1.02e+07 4.03e+06 2.66e+06 5640        0      298     
number of processes/call 1.31e+00 1.75e+00 1.94e+00 0.00e+00 0.00e+00
bytes total:             9.31e+10 1.09e+10 9.93e+10 6.26e+04 0.00e+00 2.38e+03
bytes remote:            6.96e+10 1.08e+09 9.48e+10 0.00e+00 0.00e+00 0.00e+00
Max memory consumed for GA by this process: 205086464 bytes
 
MA_summarize_allocated_blocks: starting scan ...
MA_summarize_allocated_blocks: scan completed: 0 heap blocks, 0 stack blocks
MA usage statistics:

	allocation statistics:
					      heap	     stack
					      ----	     -----
	current number of blocks	         0	         0
	maximum number of blocks	        20	        52
	current total bytes		         0	         0
	maximum total bytes		   1166000	  68276408
	maximum total K-bytes		      1166	     68277
	maximum total M-bytes		         2	        69
 
 
                                     CITATION
                                     --------
                Please cite the following reference when publishing
                           results obtained with NWChem:
 
                 M. Valiev, E.J. Bylaska, N. Govind, K. Kowalski,
              T.P. Straatsma, H.J.J. van Dam, D. Wang, J. Nieplocha,
                        E. Apra, T.L. Windus, W.A. de Jong
                 "NWChem: a comprehensive and scalable open-source
                  solution for large scale molecular simulations"
                      Comput. Phys. Commun. 181, 1477 (2010)
                           doi:10.1016/j.cpc.2010.04.018
 
                                      AUTHORS
                                      -------
          E. Apra, E. J. Bylaska, W. A. de Jong, N. Govind, K. Kowalski,
       T. P. Straatsma, M. Valiev, H. J. J. van Dam, D. Wang, T. L. Windus,
        J. Hammond, J. Autschbach, K. Bhaskaran-Nair, J. Brabec, K. Lopata,
    S. A. Fischer, S. Krishnamoorthy, M. Jacquelin, W. Ma, M. Klemm, O. Villa,
      Y. Chen, V. Anisimov, F. Aquino, S. Hirata, M. T. Hackler, V. Konjkov,
            D. Mejia-Rodriguez, T. Risthaus, M. Malagoli, A. Marenich,
   A. Otero-de-la-Roza, J. Mullin, P. Nichols, R. Peverati, J. Pittner, Y. Zhao,
        P.-D. Fan, A. Fonari, M. J. Williamson, R. J. Harrison, J. R. Rehr,
      M. Dupuis, D. Silverstein, D. M. A. Smith, J. Nieplocha, V. Tipparaju,
    M. Krishnan, B. E. Van Kuiken, A. Vazquez-Mayagoitia, L. Jensen, M. Swart,
      Q. Wu, T. Van Voorhis, A. A. Auer, M. Nooijen, L. D. Crosby, E. Brown,
      G. Cisneros, G. I. Fann, H. Fruchtl, J. Garza, K. Hirao, R. A. Kendall,
      J. A. Nichols, K. Tsemekhman, K. Wolinski, J. Anchell, D. E. Bernholdt,
      P. Borowski, T. Clark, D. Clerc, H. Dachsel, M. J. O. Deegan, K. Dyall,
    D. Elwood, E. Glendening, M. Gutowski, A. C. Hess, J. Jaffe, B. G. Johnson,
     J. Ju, R. Kobayashi, R. Kutteh, Z. Lin, R. Littlefield, X. Long, B. Meng,
      T. Nakajima, S. Niu, L. Pollack, M. Rosing, K. Glaesemann, G. Sandrone,
      M. Stave, H. Taylor, G. Thomas, J. H. van Lenthe, A. T. Wong, Z. Zhang.

 Total times  cpu:     2900.2s     wall:     3010.0s
