 argument  1 = /storage/home/j/jbb5516/normalModes/mode673.61-m.nw
 


============================== echo of input deck ==============================
echo
start

title "None"

geometry
C    -0.08747224    1.38830409    0.00072965
C    -1.26735482    0.69112092   -0.00056056
C    -1.16733630   -0.70470852    0.00092601
C     0.08291598   -1.31598916   -0.00079411
C     1.24655610   -0.55261762    0.00092602
C     1.17058620    0.84472727   -0.00056057
H    -2.23189055    1.18090100   -0.00270956
H    -2.06748412   -1.30603725    0.00029513
H     0.15092404   -2.39537432   -0.00310453
H     2.21506130   -1.03620839    0.00029550
H     2.06601969    1.45169726   -0.00270980
symmetry c1
end

basis spherical
 * library "aug-cc-pvtz"
end

dft
 direct
 mult 2
 iterations 500
 xc b3lyp
end

tddft
 nroots 40
 notriplet
 algorithm 1
end
task tddft energy
================================================================================


                                         
                                         
 
 
              Northwest Computational Chemistry Package (NWChem) 6.8
              ------------------------------------------------------
 
 
                    Environmental Molecular Sciences Laboratory
                       Pacific Northwest National Laboratory
                                Richland, WA 99352
 
                              Copyright (c) 1994-2017
                       Pacific Northwest National Laboratory
                            Battelle Memorial Institute
 
             NWChem is an open-source computational chemistry package
                        distributed under the terms of the
                      Educational Community License (ECL) 2.0
             A copy of the license is included with this distribution
                              in the LICENSE.TXT file
 
                                  ACKNOWLEDGMENT
                                  --------------

            This software and its documentation were developed at the
            EMSL at Pacific Northwest National Laboratory, a multiprogram
            national laboratory, operated for the U.S. Department of Energy
            by Battelle under Contract Number DE-AC05-76RL01830. Support
            for this work was provided by the Department of Energy Office
            of Biological and Environmental Research, Office of Basic
            Energy Sciences, and the Office of Advanced Scientific Computing.


           Job information
           ---------------

    hostname        = comp-sc-0201.acib.production.int.aci.ics.psu.edu
    program         = /gpfs/group/lxj18/default/jeffprograms/nwchem-6.8.1/bin/LINUX64/nwchem
    date            = Sun Sep 20 19:15:00 2020

    compiled        = Wed_Oct_03_14:08:39_2018
    source          = /gpfs/group/lxj18/default/jeffprograms/nwchem-6.8.1
    nwchem branch   = 6.8.1
    nwchem revision = v6.8-143-gdb0d964
    ga revision     = 5.6.5
    use scalapack   = F
    input           = /storage/home/j/jbb5516/normalModes/mode673.61-m.nw
    prefix          = mode673.61-m.
    data base       = ./mode673.61-m.db
    status          = startup
    nproc           =       20
    time left       =     -1s



           Memory information
           ------------------

    heap     =   13107198 doubles =    100.0 Mbytes
    stack    =   13107195 doubles =    100.0 Mbytes
    global   =   26214400 doubles =    200.0 Mbytes (distinct from heap & stack)
    total    =   52428793 doubles =    400.0 Mbytes
    verify   = yes
    hardfail = no 


           Directory information
           ---------------------
 
  0 permanent = .
  0 scratch   = .
 
 
 
 
                                NWChem Input Module
                                -------------------
 
 
                                       None
                                       ----

 Scaling coordinates for geometry "geometry" by  1.889725989
 (inverse scale =  0.529177249)

 Turning off AUTOSYM since
 SYMMETRY directive was detected!
 

          ------
          auto-z
          ------
 
 
                             Geometry "geometry" -> ""
                             -------------------------
 
 Output coordinates in angstroms (scale by  1.889725989 to convert to a.u.)
 
  No.       Tag          Charge          X              Y              Z
 ---- ---------------- ---------- -------------- -------------- --------------
    1 C                    6.0000    -0.08747224     1.38830409     0.00082562
    2 C                    6.0000    -1.26735482     0.69112092    -0.00046459
    3 C                    6.0000    -1.16733630    -0.70470852     0.00102198
    4 C                    6.0000     0.08291598    -1.31598916    -0.00069814
    5 C                    6.0000     1.24655610    -0.55261762     0.00102199
    6 C                    6.0000     1.17058620     0.84472727    -0.00046460
    7 H                    1.0000    -2.23189055     1.18090100    -0.00261359
    8 H                    1.0000    -2.06748412    -1.30603725     0.00039110
    9 H                    1.0000     0.15092404    -2.39537432    -0.00300856
   10 H                    1.0000     2.21506130    -1.03620839     0.00039147
   11 H                    1.0000     2.06601969     1.45169726    -0.00261383
 
      Atomic Mass 
      ----------- 
 
      C                 12.000000
      H                  1.007825
 

 Effective nuclear repulsion energy (a.u.)     195.0639249982

            Nuclear Dipole moment (a.u.) 
            ----------------------------
        X                 Y               Z
 ---------------- ---------------- ----------------
    -0.0000000000     0.0000000000     0.0000000000
 


                                Z-matrix (autoz)
                                -------- 

 Units are Angstrom for bonds and degrees for angles
 
      Type          Name      I     J     K     L     M      Value
      ----------- --------  ----- ----- ----- ----- ----- ----------
    1 Stretch                  1     2                       1.37047
    2 Stretch                  1     6                       1.37047
    3 Stretch                  2     3                       1.39941
    4 Stretch                  2     7                       1.08177
    5 Stretch                  3     4                       1.39169
    6 Stretch                  3     8                       1.08253
    7 Stretch                  4     5                       1.39169
    8 Stretch                  4     9                       1.08153
    9 Stretch                  5     6                       1.39941
   10 Stretch                  5    10                       1.08253
   11 Stretch                  6    11                       1.08177
   12 Bend                     1     2     3               116.47987
   13 Bend                     1     2     7               122.50061
   14 Bend                     1     6     5               116.47987
   15 Bend                     1     6    11               122.50063
   16 Bend                     2     1     6               126.05339
   17 Bend                     2     3     4               120.15361
   18 Bend                     2     3     8               119.64564
   19 Bend                     3     2     7               121.01953
   20 Bend                     3     4     5               120.67895
   21 Bend                     3     4     9               119.66051
   22 Bend                     4     3     8               120.20047
   23 Bend                     4     5     6               120.15360
   24 Bend                     4     5    10               120.20051
   25 Bend                     5     4     9               119.66053
   26 Bend                     5     6    11               121.01950
   27 Bend                     6     5    10               119.64561
   28 Torsion                  1     2     3     4          -0.20784
   29 Torsion                  1     2     3     8         179.98248
   30 Torsion                  1     6     5     4           0.20784
   31 Torsion                  1     6     5    10        -179.98246
   32 Torsion                  2     1     6     5          -0.20086
   33 Torsion                  2     1     6    11         179.79341
   34 Torsion                  2     3     4     5           0.23589
   35 Torsion                  2     3     4     9        -179.78795
   36 Torsion                  3     2     1     6           0.20085
   37 Torsion                  3     4     5     6          -0.23589
   38 Torsion                  3     4     5    10         179.95548
   39 Torsion                  4     3     2     7         179.78653
   40 Torsion                  4     5     6    11        -179.78651
   41 Torsion                  5     4     3     8        -179.95550
   42 Torsion                  6     1     2     7        -179.79342
   43 Torsion                  6     5     4     9         179.78794
   44 Torsion                  7     2     3     8          -0.02316
   45 Torsion                  8     3     4     9           0.02067
   46 Torsion                  9     4     5    10          -0.02069
   47 Torsion                 10     5     6    11           0.02319
 
 
            XYZ format geometry
            -------------------
    11
 geometry
 C                    -0.08747224     1.38830409     0.00082562
 C                    -1.26735482     0.69112092    -0.00046459
 C                    -1.16733630    -0.70470852     0.00102198
 C                     0.08291598    -1.31598916    -0.00069814
 C                     1.24655610    -0.55261762     0.00102199
 C                     1.17058620     0.84472727    -0.00046460
 H                    -2.23189055     1.18090100    -0.00261359
 H                    -2.06748412    -1.30603725     0.00039110
 H                     0.15092404    -2.39537432    -0.00300856
 H                     2.21506130    -1.03620839     0.00039147
 H                     2.06601969     1.45169726    -0.00261383
 
 ==============================================================================
                                internuclear distances
 ------------------------------------------------------------------------------
       center one      |      center two      | atomic units |  angstroms
 ------------------------------------------------------------------------------
    2 C                |   1 C                |     2.58981  |     1.37047
    3 C                |   2 C                |     2.64450  |     1.39941
    4 C                |   3 C                |     2.62991  |     1.39169
    5 C                |   4 C                |     2.62991  |     1.39169
    6 C                |   1 C                |     2.58981  |     1.37047
    6 C                |   5 C                |     2.64450  |     1.39941
    7 H                |   2 C                |     2.04424  |     1.08177
    8 H                |   3 C                |     2.04568  |     1.08253
    9 H                |   4 C                |     2.04379  |     1.08153
   10 H                |   5 C                |     2.04568  |     1.08253
   11 H                |   6 C                |     2.04424  |     1.08177
 ------------------------------------------------------------------------------
                         number of included internuclear distances:         11
 ==============================================================================



 ==============================================================================
                                 internuclear angles
 ------------------------------------------------------------------------------
        center 1       |       center 2       |       center 3       |  degrees
 ------------------------------------------------------------------------------
    2 C                |   1 C                |   6 C                |   126.05
    1 C                |   2 C                |   3 C                |   116.48
    1 C                |   2 C                |   7 H                |   122.50
    3 C                |   2 C                |   7 H                |   121.02
    2 C                |   3 C                |   4 C                |   120.15
    2 C                |   3 C                |   8 H                |   119.65
    4 C                |   3 C                |   8 H                |   120.20
    3 C                |   4 C                |   5 C                |   120.68
    3 C                |   4 C                |   9 H                |   119.66
    5 C                |   4 C                |   9 H                |   119.66
    4 C                |   5 C                |   6 C                |   120.15
    4 C                |   5 C                |  10 H                |   120.20
    6 C                |   5 C                |  10 H                |   119.65
    1 C                |   6 C                |   5 C                |   116.48
    1 C                |   6 C                |  11 H                |   122.50
    5 C                |   6 C                |  11 H                |   121.02
 ------------------------------------------------------------------------------
                            number of included internuclear angles:         16
 ==============================================================================





 Summary of "ao basis" -> "" (spherical)
 ------------------------------------------------------------------------------
       Tag                 Description            Shells   Functions and Types
 ---------------- ------------------------------  ------  ---------------------
 *                        aug-cc-pvtz                 on all atoms 


 
                                 NWChem DFT Module
                                 -----------------
 
 
                                       None
 
 
                      Basis "ao basis" -> "ao basis" (spherical)
                      -----
  C (Carbon)
  ----------
            Exponent  Coefficients 
       -------------- ---------------------------------------------------------
  1 S  8.23600000E+03  0.000531
  1 S  1.23500000E+03  0.004108
  1 S  2.80800000E+02  0.021087
  1 S  7.92700000E+01  0.081853
  1 S  2.55900000E+01  0.234817
  1 S  8.99700000E+00  0.434401
  1 S  3.31900000E+00  0.346129
  1 S  3.64300000E-01 -0.008983
 
  2 S  8.23600000E+03 -0.000113
  2 S  1.23500000E+03 -0.000878
  2 S  2.80800000E+02 -0.004540
  2 S  7.92700000E+01 -0.018133
  2 S  2.55900000E+01 -0.055760
  2 S  8.99700000E+00 -0.126895
  2 S  3.31900000E+00 -0.170352
  2 S  3.64300000E-01  0.598684
 
  3 S  9.05900000E-01  1.000000
 
  4 S  1.28500000E-01  1.000000
 
  5 S  4.40200000E-02  1.000000
 
  6 P  1.87100000E+01  0.014031
  6 P  4.13300000E+00  0.086866
  6 P  1.20000000E+00  0.290216
 
  7 P  3.82700000E-01  1.000000
 
  8 P  1.20900000E-01  1.000000
 
  9 P  3.56900000E-02  1.000000
 
 10 D  1.09700000E+00  1.000000
 
 11 D  3.18000000E-01  1.000000
 
 12 D  1.00000000E-01  1.000000
 
 13 F  7.61000000E-01  1.000000
 
 14 F  2.68000000E-01  1.000000
 
  H (Hydrogen)
  ------------
            Exponent  Coefficients 
       -------------- ---------------------------------------------------------
  1 S  3.38700000E+01  0.006068
  1 S  5.09500000E+00  0.045308
  1 S  1.15900000E+00  0.202822
 
  2 S  3.25800000E-01  1.000000
 
  3 S  1.02700000E-01  1.000000
 
  4 S  2.52600000E-02  1.000000
 
  5 P  1.40700000E+00  1.000000
 
  6 P  3.88000000E-01  1.000000
 
  7 P  1.02000000E-01  1.000000
 
  8 D  1.05700000E+00  1.000000
 
  9 D  2.47000000E-01  1.000000
 


 Summary of "ao basis" -> "ao basis" (spherical)
 ------------------------------------------------------------------------------
       Tag                 Description            Shells   Functions and Types
 ---------------- ------------------------------  ------  ---------------------
 C                        aug-cc-pvtz               14       46   5s4p3d2f
 H                        aug-cc-pvtz                9       23   4s3p2d




 Summary of "ao basis" -> "ao basis" (spherical)
 ------------------------------------------------------------------------------
       Tag                 Description            Shells   Functions and Types
 ---------------- ------------------------------  ------  ---------------------
 C                        aug-cc-pvtz               14       46   5s4p3d2f
 H                        aug-cc-pvtz                9       23   4s3p2d


  Caching 1-el integrals 
 
            General Information
            -------------------
          SCF calculation type: DFT
          Wavefunction type:  spin polarized.
          No. of atoms     :    11
          No. of electrons :    41
           Alpha electrons :    21
            Beta electrons :    20
          Charge           :     0
          Spin multiplicity:     2
          Use of symmetry is: off; symmetry adaption is: off
          Maximum number of iterations: 500
          This is a Direct SCF calculation.
          AO basis - number of functions:   391
                     number of shells:   129
          Convergence on energy requested:  1.00D-06
          Convergence on density requested:  1.00D-05
          Convergence on gradient requested:  5.00D-04
 
              XC Information
              --------------
                         B3LYP Method XC Potential
                     Hartree-Fock (Exact) Exchange  0.200          
                        Slater Exchange Functional  0.800 local    
                    Becke 1988 Exchange Functional  0.720 non-local
              Lee-Yang-Parr Correlation Functional  0.810          
                  VWN I RPA Correlation Functional  0.190 local    
 
             Grid Information
             ----------------
          Grid used for XC integration:  medium    
          Radial quadrature: Mura-Knowles        
          Angular quadrature: Lebedev. 
          Tag              B.-S. Rad. Rad. Pts. Rad. Cut. Ang. Pts.
          ---              ---------- --------- --------- ---------
          C                   0.70       49          15.0       434
          H                   0.35       45          17.0       434
          Grid pruning is: on 
          Number of quadrature shells:   519
          Spatial weights used:  Erf1
 
          Convergence Information
          -----------------------
          Convergence aids based upon iterative change in 
          total energy or number of iterations. 
          Levelshifting, if invoked, occurs when the 
          HOMO/LUMO gap drops below (HL_TOL):  1.00D-02
          DIIS, if invoked, will attempt to extrapolate 
          using up to (NFOCK): 10 stored Fock matrices.

                    Damping( 0%)  Levelshifting(0.5)       DIIS
                  --------------- ------------------- ---------------
          dE  on:    start            ASAP                start   
          dE off:    2 iters        500 iters           500 iters 

 
      Screening Tolerance Information
      -------------------------------
          Density screening/tol_rho:  1.00D-10
          AO Gaussian exp screening on grid/accAOfunc:  14
          CD Gaussian exp screening on grid/accCDfunc:  20
          XC Gaussian exp screening on grid/accXCfunc:  20
          Schwarz screening/accCoul:  1.00D-08

 
 WARNING : Found     7 linear dependencies 
 S eigenvalue threshold:     1.00000E-05
 Smallest S eigenvalue :     1.46494E-06
 Largest  S eigenvalue :     7.76577E-06
 

 !! The overlap matrix has   7 vectors deemed linearly dependent with
    eigenvalues:
 1.46D-06 2.24D-06 2.83D-06 3.55D-06 5.28D-06 5.95D-06 7.77D-06
 
 
      Superposition of Atomic Density Guess
      -------------------------------------
 
 Sum of atomic energies:        -228.52307259
 
      Non-variational initial energy
      ------------------------------

 Total energy =    -232.667198
 1-e energy   =    -691.328374
 2-e energy   =     263.597252
 HOMO         =      -0.183325
 LUMO         =      -0.022269
 
   Time after variat. SCF:      9.8
   Time prior to 1st pass:      9.8

 Grid_pts file          = ./mode673.61-m.gridpts.00
 Record size in doubles =  12289        No. of grid_pts per rec  =   3070
 Max. records in memory =      6        Max. recs in file   = 218997263

 Grid integrated density:      40.999765897562
 Requested integration accuracy:   0.10E-05

           Memory utilization after 1st SCF pass: 
           Heap Space remaining (MW):       12.96            12961278
          Stack Space remaining (MW):       13.10            13103676

   convergence    iter        energy       DeltaE   RMS-Dens  Diis-err    time
 ---------------- ----- ----------------- --------- --------- ---------  ------
 d= 0,ls=0.0,diis     1   -231.5815914292 -4.27D+02  6.18D-02  2.09D-01    22.3
                                                     6.98D-02  1.96D-01
 d= 0,ls=0.0,diis     2   -231.6398328046 -5.82D-02  6.09D-02  1.22D-02    34.8
                                                     6.87D-02  1.25D-02
 d= 0,ls=0.0,diis     3   -231.6446102133 -4.78D-03  1.28D-03  3.44D-03    53.1
                                                     1.38D-03  3.50D-03
 d= 0,ls=0.0,diis     4   -231.6457669927 -1.16D-03  2.03D-04  1.12D-03    65.7
                                                     2.07D-04  1.06D-03
 d= 0,ls=0.0,diis     5   -231.6462851643 -5.18D-04  3.40D-05  4.24D-05    78.1
                                                     3.12D-05  4.84D-05
  Resetting Diis
 d= 0,ls=0.0,diis     6   -231.6463130430 -2.79D-05  1.11D-05  7.80D-06    90.6
                                                     1.06D-05  6.30D-06
 d= 0,ls=0.0,diis     7   -231.6463192354 -6.19D-06  7.31D-06  2.13D-06   103.1
                                                     6.52D-06  2.39D-06
 d= 0,ls=0.0,diis     8   -231.6463203120 -1.08D-06  3.05D-06  5.47D-06   115.6
                                                     2.70D-06  4.82D-06
 d= 0,ls=0.0,diis     9   -231.6463235988 -3.29D-06  3.73D-06  3.84D-07   128.1
                                                     3.31D-06  3.27D-07
 d= 0,ls=0.0,diis    10   -231.6463249017 -1.30D-06  2.14D-06  1.90D-07   140.6
                                                     2.45D-06  2.89D-07
 d= 0,ls=0.0,diis    11   -231.6463253368 -4.35D-07  5.94D-07  1.19D-08   153.1
                                                     5.15D-07  9.03D-09


         Total DFT energy =     -231.646325336763
      One electron energy =     -696.560820556201
           Coulomb energy =      304.259757284059
    Exchange-Corr. energy =      -34.409187062851
 Nuclear repulsion energy =      195.063924998229

 Numeric. integr. density =       40.999984402794

     Total iterative time =    143.3s


 
                    DFT Final Alpha Molecular Orbital Analysis
                    ------------------------------------------
 
 Vector    1  Occ=1.000000D+00  E=-1.020525D+01
              MO Center= -8.7D-02,  1.4D+00,  8.2D-04, r^2= 3.0D-02
   Bfn.  Coefficient  Atom+Function         Bfn.  Coefficient  Atom+Function  
  ----- ------------  ---------------      ----- ------------  ---------------
     1      0.984164   1 C  s                 3      0.058854   1 C  s         
    50     -0.038415   2 C  s               234     -0.038415   6 C  s         
   143      0.037879   4 C  s               279      0.037950   7 H  s         
   371      0.037948  11 H  s                51     -0.030670   2 C  s         
   235     -0.030669   6 C  s                47      0.025289   2 C  s         
 
 Vector    2  Occ=1.000000D+00  E=-1.019183D+01
              MO Center= -7.3D-01, -6.3D-01,  9.6D-04, r^2= 9.6D-01
   Bfn.  Coefficient  Atom+Function         Bfn.  Coefficient  Atom+Function  
  ----- ------------  ---------------      ----- ------------  ---------------
    93      0.874196   3 C  s               185      0.411833   5 C  s         
    47      0.176847   2 C  s               142     -0.092901   4 C  s         
   231      0.071989   6 C  s               139      0.055746   4 C  s         
    95      0.052269   3 C  s               302      0.049068   8 H  s         
   325      0.048076   9 H  s               234      0.036388   6 C  s         
 
 Vector    3  Occ=1.000000D+00  E=-1.019180D+01
              MO Center=  8.1D-01, -5.2D-01,  9.5D-04, r^2= 9.8D-01
   Bfn.  Coefficient  Atom+Function         Bfn.  Coefficient  Atom+Function  
  ----- ------------  ---------------      ----- ------------  ---------------
   185      0.872187   5 C  s                93     -0.407624   3 C  s         
   231      0.190431   6 C  s                47     -0.100672   2 C  s         
    50      0.062541   2 C  s               348      0.059060  10 H  s         
    51      0.052888   2 C  s               187      0.051930   5 C  s         
   279     -0.051674   7 H  s               234     -0.051084   6 C  s         
 
 Vector    4  Occ=1.000000D+00  E=-1.019034D+01
              MO Center= -1.1D+00,  6.4D-01, -4.0D-04, r^2= 3.9D-01
   Bfn.  Coefficient  Atom+Function         Bfn.  Coefficient  Atom+Function  
  ----- ------------  ---------------      ----- ------------  ---------------
    47      0.940247   2 C  s               231      0.221435   6 C  s         
    93     -0.192021   3 C  s               279      0.058556   7 H  s         
    49      0.054935   2 C  s               143      0.037891   4 C  s         
     4     -0.035233   1 C  s               185     -0.033154   5 C  s         
   142     -0.032009   4 C  s               189      0.031687   5 C  s         
 
 Vector    5  Occ=1.000000D+00  E=-1.019033D+01
              MO Center=  1.0D+00,  7.7D-01, -4.0D-04, r^2= 4.0D-01
   Bfn.  Coefficient  Atom+Function         Bfn.  Coefficient  Atom+Function  
  ----- ------------  ---------------      ----- ------------  ---------------
   231      0.938634   6 C  s                47     -0.214567   2 C  s         
   185     -0.197663   5 C  s                93      0.056973   3 C  s         
   371      0.056251  11 H  s               233      0.054438   6 C  s         
    97      0.045928   3 C  s                96      0.041036   3 C  s         
   189     -0.039676   5 C  s                12     -0.037464   1 C  px        
 
 Vector    6  Occ=1.000000D+00  E=-1.018432D+01
              MO Center=  8.3D-02, -1.3D+00, -6.9D-04, r^2= 3.5D-02
   Bfn.  Coefficient  Atom+Function         Bfn.  Coefficient  Atom+Function  
  ----- ------------  ---------------      ----- ------------  ---------------
   139      0.984285   4 C  s               141      0.057792   4 C  s         
    96     -0.045911   3 C  s               188     -0.045913   5 C  s         
   325      0.046002   9 H  s               143     -0.043502   4 C  s         
     4      0.040392   1 C  s                93     -0.039666   3 C  s         
   185     -0.039752   5 C  s               151      0.036017   4 C  py        
 
 Vector    7  Occ=1.000000D+00  E=-8.724601D-01
              MO Center= -6.3D-03,  9.9D-02,  1.3D-04, r^2= 2.0D+00
   Bfn.  Coefficient  Atom+Function         Bfn.  Coefficient  Atom+Function  
  ----- ------------  ---------------      ----- ------------  ---------------
     2      0.214063   1 C  s                48      0.202671   2 C  s         
   232      0.202654   6 C  s                94      0.195596   3 C  s         
   186      0.195579   5 C  s               140      0.188217   4 C  s         
    50      0.090248   2 C  s               234      0.090239   6 C  s         
    96      0.088085   3 C  s               188      0.088080   5 C  s         
 
 Vector    8  Occ=1.000000D+00  E=-7.627318D-01
              MO Center= -6.3D-03,  1.0D-01,  5.1D-05, r^2= 2.8D+00
   Bfn.  Coefficient  Atom+Function         Bfn.  Coefficient  Atom+Function  
  ----- ------------  ---------------      ----- ------------  ---------------
    48      0.250858   2 C  s               232     -0.250868   6 C  s         
    94      0.243819   3 C  s               186     -0.243826   5 C  s         
    50      0.146216   2 C  s               234     -0.146224   6 C  s         
   279     -0.129364   7 H  s               371      0.129369  11 H  s         
   150     -0.115520   4 C  px               97      0.110862   3 C  s         
 
 Vector    9  Occ=1.000000D+00  E=-7.537325D-01
              MO Center=  9.2D-03, -1.5D-01, -8.3D-05, r^2= 2.6D+00
   Bfn.  Coefficient  Atom+Function         Bfn.  Coefficient  Atom+Function  
  ----- ------------  ---------------      ----- ------------  ---------------
   140     -0.300918   4 C  s                 2      0.278554   1 C  s         
    94     -0.148872   3 C  s               186     -0.148864   5 C  s         
    48      0.148026   2 C  s               142     -0.147405   4 C  s         
   232      0.148016   6 C  s                96     -0.104916   3 C  s         
   188     -0.104914   5 C  s                 4      0.102994   1 C  s         
 
 Vector   10  Occ=1.000000D+00  E=-6.187397D-01
              MO Center= -2.5D-03,  3.9D-02, -7.9D-05, r^2= 3.6D+00
   Bfn.  Coefficient  Atom+Function         Bfn.  Coefficient  Atom+Function  
  ----- ------------  ---------------      ----- ------------  ---------------
    94     -0.208567   3 C  s               186      0.208561   5 C  s         
    48      0.199458   2 C  s               232     -0.199464   6 C  s         
    50      0.183353   2 C  s               234     -0.183360   6 C  s         
    96     -0.146989   3 C  s               188      0.146978   5 C  s         
     6     -0.127295   1 C  px              144      0.116926   4 C  px        
 
 Vector   11  Occ=1.000000D+00  E=-6.035487D-01
              MO Center=  5.4D-03, -8.7D-02, -1.6D-04, r^2= 3.5D+00
   Bfn.  Coefficient  Atom+Function         Bfn.  Coefficient  Atom+Function  
  ----- ------------  ---------------      ----- ------------  ---------------
   142      0.258345   4 C  s                 2      0.238938   1 C  s         
   140      0.218767   4 C  s                 4      0.198694   1 C  s         
    94     -0.138340   3 C  s               186     -0.138359   5 C  s         
    50     -0.122716   2 C  s               234     -0.122706   6 C  s         
    96     -0.119269   3 C  s               188     -0.119281   5 C  s         
 
 Vector   12  Occ=1.000000D+00  E=-5.277271D-01
              MO Center=  9.4D-03, -1.5D-01, -9.5D-04, r^2= 4.1D+00
   Bfn.  Coefficient  Atom+Function         Bfn.  Coefficient  Atom+Function  
  ----- ------------  ---------------      ----- ------------  ---------------
   148      0.159262   4 C  py              145      0.138837   4 C  py        
   324     -0.126841   9 H  s                55      0.105300   2 C  px        
   240     -0.104899   6 C  py              323     -0.100377   9 H  s         
   237     -0.096178   6 C  py              193     -0.094439   5 C  px        
   278     -0.094489   7 H  s               370     -0.094482  11 H  s         
 
 Vector   13  Occ=1.000000D+00  E=-4.645289D-01
              MO Center= -6.7D-03,  1.0D-01,  1.3D-04, r^2= 2.7D+00
   Bfn.  Coefficient  Atom+Function         Bfn.  Coefficient  Atom+Function  
  ----- ------------  ---------------      ----- ------------  ---------------
     9      0.189041   1 C  px                6      0.175363   1 C  px        
   147      0.172357   4 C  px              144      0.159073   4 C  px        
   239     -0.136870   6 C  px              194     -0.134749   5 C  py        
    56     -0.131373   2 C  py               55     -0.121400   2 C  px        
   191     -0.121432   5 C  py              236     -0.121875   6 C  px        
 
 Vector   14  Occ=1.000000D+00  E=-4.631586D-01
              MO Center=  1.0D-02, -1.6D-01, -1.0D-04, r^2= 4.8D+00
   Bfn.  Coefficient  Atom+Function         Bfn.  Coefficient  Atom+Function  
  ----- ------------  ---------------      ----- ------------  ---------------
     2      0.176559   1 C  s               301      0.136699   8 H  s         
   347      0.136675  10 H  s               140     -0.129403   4 C  s         
   193      0.127764   5 C  px              196      0.120312   5 C  px        
   101     -0.118804   3 C  px              190      0.118565   5 C  px        
    96      0.117540   3 C  s               104     -0.117389   3 C  px        
 
 Vector   15  Occ=1.000000D+00  E=-4.399778D-01
              MO Center= -1.3D-02,  2.1D-01, -3.3D-04, r^2= 4.0D+00
   Bfn.  Coefficient  Atom+Function         Bfn.  Coefficient  Atom+Function  
  ----- ------------  ---------------      ----- ------------  ---------------
   240      0.143968   6 C  py              102      0.139211   3 C  py        
   237      0.132907   6 C  py              278     -0.131461   7 H  s         
   370      0.131458  11 H  s                99      0.130195   3 C  py        
    55      0.129421   2 C  px               56     -0.128748   2 C  py        
   194     -0.126950   5 C  py               53     -0.119658   2 C  py        
 
 Vector   16  Occ=1.000000D+00  E=-3.990535D-01
              MO Center=  4.9D-02, -7.8D-01, -7.4D-04, r^2= 3.3D+00
   Bfn.  Coefficient  Atom+Function         Bfn.  Coefficient  Atom+Function  
  ----- ------------  ---------------      ----- ------------  ---------------
   148      0.233506   4 C  py              145      0.209188   4 C  py        
   324     -0.198592   9 H  s               151      0.172694   4 C  py        
   323     -0.154028   9 H  s                10      0.138645   1 C  py        
    13      0.120981   1 C  py              240      0.115209   6 C  py        
    56      0.109434   2 C  py                7      0.107928   1 C  py        
 
 Vector   17  Occ=1.000000D+00  E=-3.837005D-01
              MO Center= -7.7D-03,  1.2D-01,  4.0D-04, r^2= 2.7D+00
   Bfn.  Coefficient  Atom+Function         Bfn.  Coefficient  Atom+Function  
  ----- ------------  ---------------      ----- ------------  ---------------
    11      0.173451   1 C  pz               57      0.156410   2 C  pz        
   241      0.156398   6 C  pz              103      0.152229   3 C  pz        
   195      0.152217   5 C  pz              149      0.145888   4 C  pz        
     8      0.136824   1 C  pz               54      0.125783   2 C  pz        
   238      0.125774   6 C  pz              100      0.121730   3 C  pz        
 
 Vector   18  Occ=1.000000D+00  E=-3.659899D-01
              MO Center=  9.1D-03, -1.4D-01, -1.3D-04, r^2= 4.1D+00
   Bfn.  Coefficient  Atom+Function         Bfn.  Coefficient  Atom+Function  
  ----- ------------  ---------------      ----- ------------  ---------------
   147     -0.169332   4 C  px              101      0.165178   3 C  px        
   193      0.165098   5 C  px              144     -0.159884   4 C  px        
     9      0.149416   1 C  px               98      0.149456   3 C  px        
   190      0.149153   5 C  px                6      0.141598   1 C  px        
   196      0.135657   5 C  px              104      0.133537   3 C  px        
 
 Vector   19  Occ=1.000000D+00  E=-2.685145D-01
              MO Center=  9.0D-04, -1.5D-02,  1.5D-03, r^2= 3.0D+00
   Bfn.  Coefficient  Atom+Function         Bfn.  Coefficient  Atom+Function  
  ----- ------------  ---------------      ----- ------------  ---------------
    11      0.245290   1 C  pz              149     -0.238548   4 C  pz        
     8      0.192901   1 C  pz              146     -0.190704   4 C  pz        
    14      0.176319   1 C  pz              152     -0.171617   4 C  pz        
   103     -0.126594   3 C  pz              195     -0.126465   5 C  pz        
    57      0.114761   2 C  pz              241      0.114879   6 C  pz        
 
 Vector   20  Occ=1.000000D+00  E=-2.678697D-01
              MO Center= -3.8D-03,  6.1D-02,  6.4D-04, r^2= 3.1D+00
   Bfn.  Coefficient  Atom+Function         Bfn.  Coefficient  Atom+Function  
  ----- ------------  ---------------      ----- ------------  ---------------
   103      0.207440   3 C  pz              195     -0.207521   5 C  pz        
    57      0.203845   2 C  pz              241     -0.203782   6 C  pz        
   100      0.165271   3 C  pz              192     -0.165336   5 C  pz        
    54      0.163239   2 C  pz              238     -0.163189   6 C  pz        
    60      0.150528   2 C  pz              106      0.149949   3 C  pz        
 
 Vector   21  Occ=1.000000D+00  E=-2.484170D-01
              MO Center= -8.2D-02,  1.3D+00, -7.4D-04, r^2= 2.3D+00
   Bfn.  Coefficient  Atom+Function         Bfn.  Coefficient  Atom+Function  
  ----- ------------  ---------------      ----- ------------  ---------------
    10      0.385983   1 C  py               13      0.337692   1 C  py        
     5      0.335246   1 C  s                 7      0.299335   1 C  py        
     4      0.279389   1 C  s                 2      0.138343   1 C  s         
   243     -0.136189   6 C  py               59     -0.134132   2 C  py        
   102      0.112394   3 C  py              194      0.112406   5 C  py        
 
 Vector   22  Occ=0.000000D+00  E=-2.600768D-02
              MO Center= -4.3D-03,  6.8D-02,  8.7D-04, r^2= 4.3D+00
   Bfn.  Coefficient  Atom+Function         Bfn.  Coefficient  Atom+Function  
  ----- ------------  ---------------      ----- ------------  ---------------
   109     -0.320093   3 C  pz              201      0.320073   5 C  pz        
    63      0.314640   2 C  pz              247     -0.314627   6 C  pz        
    60      0.226969   2 C  pz              244     -0.226962   6 C  pz        
   106     -0.223735   3 C  pz              198      0.223722   5 C  pz        
    57      0.218765   2 C  pz              241     -0.218761   6 C  pz        
 
 Vector   23  Occ=0.000000D+00  E=-1.861333D-02
              MO Center=  3.1D-03, -5.0D-02,  9.2D-04, r^2= 4.3D+00
   Bfn.  Coefficient  Atom+Function         Bfn.  Coefficient  Atom+Function  
  ----- ------------  ---------------      ----- ------------  ---------------
   155      0.439590   4 C  pz               17      0.373550   1 C  pz        
   152      0.273939   4 C  pz               11      0.258951   1 C  pz        
   149      0.250782   4 C  pz               14      0.240479   1 C  pz        
   109     -0.226071   3 C  pz              201     -0.226081   5 C  pz        
     8      0.200623   1 C  pz               63     -0.198208   2 C  pz        
 
 Vector   24  Occ=0.000000D+00  E=-1.011004D-02
              MO Center=  6.0D-02, -9.5D-01, -3.2D-03, r^2= 2.0D+01
   Bfn.  Coefficient  Atom+Function         Bfn.  Coefficient  Atom+Function  
  ----- ------------  ---------------      ----- ------------  ---------------
     5      1.446697   1 C  s               279     -0.976464   7 H  s         
   371     -0.976462  11 H  s               326     -0.741580   9 H  s         
   303     -0.730317   8 H  s               349     -0.730184  10 H  s         
   302     -0.650204   8 H  s               348     -0.650213  10 H  s         
   325     -0.588356   9 H  s                51      0.561455   2 C  s         
 
 Vector   25  Occ=0.000000D+00  E= 4.381996D-03
              MO Center=  1.6D-02, -2.6D-01, -2.7D-03, r^2= 2.7D+01
   Bfn.  Coefficient  Atom+Function         Bfn.  Coefficient  Atom+Function  
  ----- ------------  ---------------      ----- ------------  ---------------
    51      2.731994   2 C  s               235     -2.731719   6 C  s         
    97      2.672735   3 C  s               189     -2.672746   5 C  s         
   303      1.996686   8 H  s               349     -1.996803  10 H  s         
    15      1.866780   1 C  px              153      1.807527   4 C  px        
   280      1.540149   7 H  s               372     -1.540029  11 H  s         
 
 Vector   26  Occ=0.000000D+00  E= 8.728791D-03
              MO Center=  4.6D-03, -7.3D-02, -4.8D-03, r^2= 2.7D+01
   Bfn.  Coefficient  Atom+Function         Bfn.  Coefficient  Atom+Function  
  ----- ------------  ---------------      ----- ------------  ---------------
   143      6.245408   4 C  s                51     -4.009986   2 C  s         
   235     -4.010166   6 C  s               326      2.932188   9 H  s         
     5      2.590004   1 C  s               280     -2.388407   7 H  s         
   372     -2.388410  11 H  s               154      1.947113   4 C  py        
   246      1.934068   6 C  py               62      1.829907   2 C  py        
 
 Vector   27  Occ=0.000000D+00  E= 2.670490D-02
              MO Center= -1.5D-02,  2.4D-01, -2.6D-03, r^2= 3.1D+01
   Bfn.  Coefficient  Atom+Function         Bfn.  Coefficient  Atom+Function  
  ----- ------------  ---------------      ----- ------------  ---------------
   280      3.932376   7 H  s               372     -3.932452  11 H  s         
    51      3.659241   2 C  s               235     -3.659634   6 C  s         
   303     -3.601904   8 H  s               349      3.601744  10 H  s         
    61      2.222077   2 C  px               97     -2.189686   3 C  s         
   189      2.189693   5 C  s               199     -2.040860   5 C  px        
 
 Vector   28  Occ=0.000000D+00  E= 3.221591D-02
              MO Center=  3.9D-02, -6.2D-01, -3.5D-03, r^2= 2.9D+01
   Bfn.  Coefficient  Atom+Function         Bfn.  Coefficient  Atom+Function  
  ----- ------------  ---------------      ----- ------------  ---------------
     5      6.396402   1 C  s               326     -4.998425   9 H  s         
   303      3.725536   8 H  s               349      3.725858  10 H  s         
    97     -2.179675   3 C  s               154     -2.176437   4 C  py        
   189     -2.179320   5 C  s               199     -1.647722   5 C  px        
   245      1.633992   6 C  px               61     -1.580503   2 C  px        
 
 Vector   29  Occ=0.000000D+00  E= 4.329372D-02
              MO Center=  1.4D-02, -2.2D-01,  7.0D-03, r^2= 1.3D+01
   Bfn.  Coefficient  Atom+Function         Bfn.  Coefficient  Atom+Function  
  ----- ------------  ---------------      ----- ------------  ---------------
   155      0.598665   4 C  pz               63      0.576377   2 C  pz        
   247      0.576337   6 C  pz               17     -0.260355   1 C  pz        
     5     -0.245874   1 C  s                60     -0.154927   2 C  pz        
   244     -0.154946   6 C  pz              143     -0.147622   4 C  s         
    51      0.128637   2 C  s               235      0.128060   6 C  s         
 
 Vector   30  Occ=0.000000D+00  E= 5.496298D-02
              MO Center=  9.4D-03, -1.5D-01, -6.8D-03, r^2= 1.5D+01
   Bfn.  Coefficient  Atom+Function         Bfn.  Coefficient  Atom+Function  
  ----- ------------  ---------------      ----- ------------  ---------------
     5     10.708218   1 C  s               143      5.281627   4 C  s         
    51     -4.488109   2 C  s               235     -4.488087   6 C  s         
   303     -2.800834   8 H  s               349     -2.800775  10 H  s         
   326      2.060281   9 H  s               199      2.006520   5 C  px        
    97     -1.951257   3 C  s               189     -1.951184   5 C  s         
 
 Vector   31  Occ=0.000000D+00  E= 6.335035D-02
              MO Center= -4.1D-02,  6.5D-01,  5.0D-03, r^2= 2.8D+01
   Bfn.  Coefficient  Atom+Function         Bfn.  Coefficient  Atom+Function  
  ----- ------------  ---------------      ----- ------------  ---------------
     5     24.376980   1 C  s                51     -9.852242   2 C  s         
   235     -9.852134   6 C  s               143      7.619242   4 C  s         
    97     -6.510572   3 C  s               189     -6.510523   5 C  s         
   326      5.864735   9 H  s               154      4.770359   4 C  py        
   303     -4.682197   8 H  s               349     -4.682348  10 H  s         
 
 Vector   32  Occ=0.000000D+00  E= 6.574585D-02
              MO Center=  1.6D-03, -2.5D-02,  4.5D-03, r^2= 1.8D+01
   Bfn.  Coefficient  Atom+Function         Bfn.  Coefficient  Atom+Function  
  ----- ------------  ---------------      ----- ------------  ---------------
   109      0.976609   3 C  pz              201     -0.976595   5 C  pz        
    63      0.770246   2 C  pz              247     -0.770216   6 C  pz        
   169     -0.676992   4 C  d  1             31     -0.583287   1 C  d  1      
   106      0.492398   3 C  pz              198     -0.492406   5 C  pz        
    60      0.488386   2 C  pz              244     -0.488364   6 C  pz        
 
 Vector   33  Occ=0.000000D+00  E= 6.826271D-02
              MO Center= -1.2D-02,  1.9D-01,  5.5D-03, r^2= 1.8D+01
   Bfn.  Coefficient  Atom+Function         Bfn.  Coefficient  Atom+Function  
  ----- ------------  ---------------      ----- ------------  ---------------
    63      1.024280   2 C  pz              247      1.024248   6 C  pz        
   109     -0.811999   3 C  pz              201     -0.811882   5 C  pz        
   155     -0.750579   4 C  pz               14      0.629569   1 C  pz        
   152     -0.617732   4 C  pz               17      0.458677   1 C  pz        
   213     -0.449542   5 C  d -1            121     -0.405716   3 C  d -1      
 
 Vector   34  Occ=0.000000D+00  E= 7.645687D-02
              MO Center=  9.2D-03, -1.6D-01, -4.6D-03, r^2= 3.4D+01
   Bfn.  Coefficient  Atom+Function         Bfn.  Coefficient  Atom+Function  
  ----- ------------  ---------------      ----- ------------  ---------------
    51     13.865715   2 C  s               235    -13.867839   6 C  s         
    97     12.410718   3 C  s               189    -12.411564   5 C  s         
    15      7.678481   1 C  px              153      7.709658   4 C  px        
   107      4.764849   3 C  px              303      4.691744   8 H  s         
   349     -4.691071  10 H  s               199      4.461811   5 C  px        
 
 Vector   35  Occ=0.000000D+00  E= 7.792156D-02
              MO Center=  2.1D-01, -3.3D+00, -6.9D-03, r^2= 2.1D+01
   Bfn.  Coefficient  Atom+Function         Bfn.  Coefficient  Atom+Function  
  ----- ------------  ---------------      ----- ------------  ---------------
   143     18.271495   4 C  s                51    -13.446190   2 C  s         
   235    -13.441657   6 C  s               326      7.026345   9 H  s         
    62      5.653291   2 C  py              246      5.677085   6 C  py        
   200      5.394146   5 C  py              154      5.273850   4 C  py        
   108      5.037163   3 C  py              279      4.190598   7 H  s         
 
 Vector   36  Occ=0.000000D+00  E= 8.155200D-02
              MO Center= -8.8D-02,  1.4D+00, -3.9D-03, r^2= 2.8D+01
   Bfn.  Coefficient  Atom+Function         Bfn.  Coefficient  Atom+Function  
  ----- ------------  ---------------      ----- ------------  ---------------
   143     20.711428   4 C  s                51     -8.946389   2 C  s         
   235     -8.948919   6 C  s               246      5.261111   6 C  py        
    62      5.167058   2 C  py              325     -4.965931   9 H  s         
   280     -4.564480   7 H  s               372     -4.564974  11 H  s         
   200      4.483559   5 C  py              326      4.499846   9 H  s         
 
 Vector   37  Occ=0.000000D+00  E= 8.317334D-02
              MO Center=  4.6D-02, -7.3D-01,  2.6D-04, r^2= 2.2D+01
   Bfn.  Coefficient  Atom+Function         Bfn.  Coefficient  Atom+Function  
  ----- ------------  ---------------      ----- ------------  ---------------
    97      4.941254   3 C  s               189     -4.941539   5 C  s         
    51     -3.129380   2 C  s               235      3.131797   6 C  s         
   108      2.795613   3 C  py              303      2.803879   8 H  s         
   349     -2.803903  10 H  s               200     -2.681729   5 C  py        
   153      2.603890   4 C  px               96      2.072868   3 C  s         
 
 Vector   38  Occ=0.000000D+00  E= 9.540197D-02
              MO Center= -5.5D-02,  8.8D-01, -2.9D-03, r^2= 3.1D+01
   Bfn.  Coefficient  Atom+Function         Bfn.  Coefficient  Atom+Function  
  ----- ------------  ---------------      ----- ------------  ---------------
    51     17.681003   2 C  s               235    -17.682702   6 C  s         
   280      7.217207   7 H  s               372     -7.217211  11 H  s         
    97     -6.904894   3 C  s               189      6.905143   5 C  s         
   108     -6.461253   3 C  py              303     -6.201621   8 H  s         
   349      6.201086  10 H  s               200      5.918944   5 C  py        
 
 Vector   39  Occ=0.000000D+00  E= 1.018008D-01
              MO Center= -7.1D-03,  1.1D-01, -5.6D-05, r^2= 1.9D+01
   Bfn.  Coefficient  Atom+Function         Bfn.  Coefficient  Atom+Function  
  ----- ------------  ---------------      ----- ------------  ---------------
    51     13.735634   2 C  s               235    -13.734670   6 C  s         
    97     10.883118   3 C  s               189    -10.883502   5 C  s         
    15     10.000330   1 C  px              153      9.716393   4 C  px        
   246     -6.096261   6 C  py              108     -6.023486   3 C  py        
   200      5.990317   5 C  py               62      5.909825   2 C  py        
 
 Vector   40  Occ=0.000000D+00  E= 1.064761D-01
              MO Center= -8.0D-03,  1.3D-01, -1.8D-03, r^2= 2.1D+01
   Bfn.  Coefficient  Atom+Function         Bfn.  Coefficient  Atom+Function  
  ----- ------------  ---------------      ----- ------------  ---------------
   143     18.274920   4 C  s                51     -9.937887   2 C  s         
   235     -9.937912   6 C  s                 5     -9.461622   1 C  s         
   107     -8.758686   3 C  px              199      7.977552   5 C  px        
   245     -7.043672   6 C  px              200      6.726667   5 C  py        
    61      6.488709   2 C  px              108      5.672008   3 C  py        
 
 Vector   41  Occ=0.000000D+00  E= 1.082039D-01
              MO Center= -1.0D-02,  1.6D-01,  1.5D-03, r^2= 2.2D+01
   Bfn.  Coefficient  Atom+Function         Bfn.  Coefficient  Atom+Function  
  ----- ------------  ---------------      ----- ------------  ---------------
    63      3.391652   2 C  pz              247     -3.391735   6 C  pz        
   109     -3.363176   3 C  pz              201      3.363479   5 C  pz        
    60      0.696872   2 C  pz              244     -0.696900   6 C  pz        
   106     -0.636800   3 C  pz              198      0.636867   5 C  pz        
    77     -0.380409   2 C  d  1            215      0.361293   5 C  d  1      
 
 Vector   42  Occ=0.000000D+00  E= 1.089657D-01
              MO Center=  3.0D-02, -4.7D-01, -1.5D-03, r^2= 2.1D+01
   Bfn.  Coefficient  Atom+Function         Bfn.  Coefficient  Atom+Function  
  ----- ------------  ---------------      ----- ------------  ---------------
   155      5.321276   4 C  pz              109     -3.442441   3 C  pz        
   201     -3.442271   5 C  pz               17      2.510134   1 C  pz        
   152      0.983354   4 C  pz              106     -0.603217   3 C  pz        
   198     -0.603192   5 C  pz              167      0.569380   4 C  d -1      
    14      0.504493   1 C  pz               63     -0.475017   2 C  pz        
 
 Vector   43  Occ=0.000000D+00  E= 1.094994D-01
              MO Center=  2.9D-02, -4.5D-01,  7.8D-06, r^2= 2.7D+01
   Bfn.  Coefficient  Atom+Function         Bfn.  Coefficient  Atom+Function  
  ----- ------------  ---------------      ----- ------------  ---------------
   326      7.667812   9 H  s               154      7.056469   4 C  py        
   303     -6.473329   8 H  s               349     -6.473696  10 H  s         
   143     -5.608610   4 C  s               108     -4.430576   3 C  py        
   200     -4.185201   5 C  py               62     -4.156477   2 C  py        
   246     -4.136890   6 C  py                4      3.925072   1 C  s         
 
 Vector   44  Occ=0.000000D+00  E= 1.178180D-01
              MO Center= -4.1D-02,  6.5D-01,  3.5D-03, r^2= 1.4D+01
   Bfn.  Coefficient  Atom+Function         Bfn.  Coefficient  Atom+Function  
  ----- ------------  ---------------      ----- ------------  ---------------
    17      6.879611   1 C  pz               63     -6.022986   2 C  pz        
   247     -6.022822   6 C  pz              109      5.053143   3 C  pz        
   201      5.052968   5 C  pz              155     -4.823486   4 C  pz        
    14      1.235842   1 C  pz               60     -1.020585   2 C  pz        
   244     -1.020551   6 C  pz              106      0.892437   3 C  pz        
 
 Vector   45  Occ=0.000000D+00  E= 1.264079D-01
              MO Center= -1.8D-02,  2.9D-01,  3.2D-04, r^2= 2.5D+01
   Bfn.  Coefficient  Atom+Function         Bfn.  Coefficient  Atom+Function  
  ----- ------------  ---------------      ----- ------------  ---------------
    51      7.587902   2 C  s               235     -7.587798   6 C  s         
   107      7.204176   3 C  px              199      7.127039   5 C  px        
   245     -7.037225   6 C  px               61     -6.926923   2 C  px        
    15      6.443964   1 C  px               97     -6.192757   3 C  s         
   189      6.192845   5 C  s               153     -5.818389   4 C  px        
 
 Vector   46  Occ=0.000000D+00  E= 1.274499D-01
              MO Center= -1.2D-02,  1.9D-01,  4.3D-04, r^2= 2.6D+01
   Bfn.  Coefficient  Atom+Function         Bfn.  Coefficient  Atom+Function  
  ----- ------------  ---------------      ----- ------------  ---------------
   154     -8.032144   4 C  py               16      7.424982   1 C  py        
   108      6.889007   3 C  py               62     -6.576442   2 C  py        
   200      6.571152   5 C  py              246     -6.383563   6 C  py        
   326     -4.051440   9 H  s                 5      3.565440   1 C  s         
   303      3.164614   8 H  s               349      3.164966  10 H  s         
 
 Vector   47  Occ=0.000000D+00  E= 1.609526D-01
              MO Center= -8.5D-03,  1.4D-01,  2.2D-03, r^2= 1.7D+01
   Bfn.  Coefficient  Atom+Function         Bfn.  Coefficient  Atom+Function  
  ----- ------------  ---------------      ----- ------------  ---------------
    17      8.192417   1 C  pz               63     -8.003994   2 C  pz        
   247     -8.004089   6 C  pz              155     -7.856288   4 C  pz        
   109      7.770876   3 C  pz              201      7.770975   5 C  pz        
    60     -1.191864   2 C  pz              106      1.192759   3 C  pz        
   198      1.192785   5 C  pz              244     -1.191889   6 C  pz        
 
 Vector   48  Occ=0.000000D+00  E= 1.660206D-01
              MO Center= -8.9D-02,  1.4D+00,  3.8D-03, r^2= 2.2D+01
   Bfn.  Coefficient  Atom+Function         Bfn.  Coefficient  Atom+Function  
  ----- ------------  ---------------      ----- ------------  ---------------
     5     59.211958   1 C  s                51    -25.982396   2 C  s         
   143     25.961942   4 C  s               235    -25.982971   6 C  s         
    97    -14.415948   3 C  s               189    -14.415113   5 C  s         
   154      7.428242   4 C  py              245      6.814370   6 C  px        
    61     -6.399585   2 C  px              326      6.155943   9 H  s         
 
 Vector   49  Occ=0.000000D+00  E= 1.754223D-01
              MO Center=  2.5D-02, -3.9D-01,  1.4D-02, r^2= 1.1D+01
   Bfn.  Coefficient  Atom+Function         Bfn.  Coefficient  Atom+Function  
  ----- ------------  ---------------      ----- ------------  ---------------
   335      1.104514   9 H  pz              312      1.079099   8 H  pz        
   358      1.079045  10 H  pz              289      0.973072   7 H  pz        
   381      0.973029  11 H  pz               17      0.960047   1 C  pz        
    63     -0.885453   2 C  pz              247     -0.885421   6 C  pz        
   106     -0.843069   3 C  pz              198     -0.843015   5 C  pz        
 
 Vector   50  Occ=0.000000D+00  E= 1.864267D-01
              MO Center=  3.4D-02, -5.5D-01, -1.9D-02, r^2= 1.5D+01
   Bfn.  Coefficient  Atom+Function         Bfn.  Coefficient  Atom+Function  
  ----- ------------  ---------------      ----- ------------  ---------------
     5     15.505955   1 C  s                97     -7.272330   3 C  s         
   189     -7.272251   5 C  s                51     -4.472450   2 C  s         
   235     -4.472719   6 C  s               325      4.425888   9 H  s         
    62     -4.045088   2 C  py              154      3.979847   4 C  py        
   246     -3.823165   6 C  py              302      3.260933   8 H  s         
 
 Vector   51  Occ=0.000000D+00  E= 1.980406D-01
              MO Center= -3.0D-02,  4.7D-01,  3.0D-03, r^2= 2.3D+01
   Bfn.  Coefficient  Atom+Function         Bfn.  Coefficient  Atom+Function  
  ----- ------------  ---------------      ----- ------------  ---------------
    51     44.602424   2 C  s               235    -44.591176   6 C  s         
    97     25.201237   3 C  s               189    -25.204176   5 C  s         
    15     18.496233   1 C  px              153     17.067155   4 C  px        
   302    -14.011077   8 H  s               348     14.012050  10 H  s         
   200      9.225966   5 C  py              108     -8.512776   3 C  py        
 
 Vector   52  Occ=0.000000D+00  E= 1.984427D-01
              MO Center=  4.6D-02, -7.3D-01,  3.9D-03, r^2= 2.3D+01
   Bfn.  Coefficient  Atom+Function         Bfn.  Coefficient  Atom+Function  
  ----- ------------  ---------------      ----- ------------  ---------------
   143     61.316707   4 C  s                51    -34.526633   2 C  s         
   235    -34.541009   6 C  s               325    -16.864588   9 H  s         
    62     14.721160   2 C  py              246     14.448824   6 C  py        
   200     13.769107   5 C  py              108     12.557878   3 C  py        
     5    -11.578287   1 C  s               279     11.179529   7 H  s         
 
 Vector   53  Occ=0.000000D+00  E= 2.154378D-01
              MO Center=  8.8D-02, -1.4D+00, -1.5D-03, r^2= 1.5D+01
   Bfn.  Coefficient  Atom+Function         Bfn.  Coefficient  Atom+Function  
  ----- ------------  ---------------      ----- ------------  ---------------
    97     13.858527   3 C  s               189    -13.858013   5 C  s         
    96      6.547768   3 C  s               188     -6.547833   5 C  s         
   153      6.323890   4 C  px              279     -5.135637   7 H  s         
   371      5.135385  11 H  s               303      4.736565   8 H  s         
   349     -4.736311  10 H  s               246     -4.492782   6 C  py        
 
 Vector   54  Occ=0.000000D+00  E= 2.182736D-01
              MO Center=  1.8D-02, -2.8D-01, -1.2D-03, r^2= 1.5D+01
   Bfn.  Coefficient  Atom+Function         Bfn.  Coefficient  Atom+Function  
  ----- ------------  ---------------      ----- ------------  ---------------
   143     25.783631   4 C  s                51    -17.782033   2 C  s         
   235    -17.793536   6 C  s                 5     15.977275   1 C  s         
    16     -6.446975   1 C  py              325     -6.049996   9 H  s         
    62      4.840395   2 C  py              246      4.723076   6 C  py        
   279      3.739560   7 H  s               371      3.740163  11 H  s         
 
 Vector   55  Occ=0.000000D+00  E= 2.191106D-01
              MO Center=  5.4D-03, -8.4D-02,  1.5D-02, r^2= 1.5D+01
   Bfn.  Coefficient  Atom+Function         Bfn.  Coefficient  Atom+Function  
  ----- ------------  ---------------      ----- ------------  ---------------
    51     19.801497   2 C  s               235    -19.792183   6 C  s         
   108     -8.470943   3 C  py              200      8.112757   5 C  py        
    15      7.529024   1 C  px              302     -6.933734   8 H  s         
   348      6.933771  10 H  s               153      6.304259   4 C  px        
   246     -4.034735   6 C  py               62      3.898647   2 C  py        
 
 Vector   56  Occ=0.000000D+00  E= 2.301176D-01
              MO Center= -1.8D-02,  2.9D-01,  8.5D-03, r^2= 1.8D+01
   Bfn.  Coefficient  Atom+Function         Bfn.  Coefficient  Atom+Function  
  ----- ------------  ---------------      ----- ------------  ---------------
   199      4.913016   5 C  px              107      4.647022   3 C  px        
   153     -3.563528   4 C  px               50     -3.272010   2 C  s         
   234      3.271577   6 C  s               303      3.158656   8 H  s         
   349     -3.157995  10 H  s                15     -2.624708   1 C  px        
   108      2.422760   3 C  py               59      1.952294   2 C  py        
 
 Vector   57  Occ=0.000000D+00  E= 2.311991D-01
              MO Center= -3.8D-05,  7.8D-04, -2.6D-02, r^2= 1.6D+01
   Bfn.  Coefficient  Atom+Function         Bfn.  Coefficient  Atom+Function  
  ----- ------------  ---------------      ----- ------------  ---------------
   106      2.142537   3 C  pz              198     -2.142546   5 C  pz        
    60      2.046791   2 C  pz              244     -2.046752   6 C  pz        
   312     -1.818077   8 H  pz              358      1.818126  10 H  pz        
   289     -1.720307   7 H  pz              381      1.720265  11 H  pz        
   169     -1.379759   4 C  d  1             31     -1.246664   1 C  d  1      
 
 Vector   58  Occ=0.000000D+00  E= 2.354302D-01
              MO Center= -1.3D-02,  2.1D-01,  1.3D-02, r^2= 1.6D+01
   Bfn.  Coefficient  Atom+Function         Bfn.  Coefficient  Atom+Function  
  ----- ------------  ---------------      ----- ------------  ---------------
   143     14.932044   4 C  s                51    -10.475538   2 C  s         
   235    -10.466200   6 C  s               107     -8.188977   3 C  px        
   199      7.760000   5 C  px               61      5.430739   2 C  px        
   245     -5.309211   6 C  px              303     -4.418112   8 H  s         
   349     -4.419664  10 H  s                 5      4.071491   1 C  s         
 
 Vector   59  Occ=0.000000D+00  E= 2.365065D-01
              MO Center= -4.5D-03,  7.4D-02,  1.3D-03, r^2= 1.7D+01
   Bfn.  Coefficient  Atom+Function         Bfn.  Coefficient  Atom+Function  
  ----- ------------  ---------------      ----- ------------  ---------------
    97    -33.167375   3 C  s               189     33.167844   5 C  s         
    51     31.540558   2 C  s               235    -31.544405   6 C  s         
    96    -14.385064   3 C  s               188     14.384481   5 C  s         
   279     10.795987   7 H  s               371    -10.794980  11 H  s         
   302    -10.656961   8 H  s               348     10.656802  10 H  s         
 
 Vector   60  Occ=0.000000D+00  E= 2.434531D-01
              MO Center=  2.7D-03, -4.3D-02, -1.8D-02, r^2= 1.5D+01
   Bfn.  Coefficient  Atom+Function         Bfn.  Coefficient  Atom+Function  
  ----- ------------  ---------------      ----- ------------  ---------------
   152      3.413312   4 C  pz               14     -3.025485   1 C  pz        
   289      2.170696   7 H  pz              381      2.170709  11 H  pz        
   335     -2.124608   9 H  pz              261      2.001552   6 C  d  1      
    77     -1.986890   2 C  d  1             63     -1.597722   2 C  pz        
   247     -1.597653   6 C  pz              155      1.370243   4 C  pz        
 
 Vector   61  Occ=0.000000D+00  E= 2.594981D-01
              MO Center=  3.8D-02, -6.0D-01, -5.1D-04, r^2= 1.7D+01
   Bfn.  Coefficient  Atom+Function         Bfn.  Coefficient  Atom+Function  
  ----- ------------  ---------------      ----- ------------  ---------------
     5      8.705205   1 C  s               108     -6.643485   3 C  py        
   200     -6.054006   5 C  py              303     -5.177881   8 H  s         
   349     -5.177819  10 H  s               199      5.076812   5 C  px        
   197     -4.838410   5 C  py              143     -4.804933   4 C  s         
   105     -4.736563   3 C  py              154      4.356760   4 C  py        
 
 Vector   62  Occ=0.000000D+00  E= 2.620260D-01
              MO Center=  6.8D-02, -1.1D+00, -9.0D-04, r^2= 1.7D+01
   Bfn.  Coefficient  Atom+Function         Bfn.  Coefficient  Atom+Function  
  ----- ------------  ---------------      ----- ------------  ---------------
     5     18.963301   1 C  s               154     15.381250   4 C  py        
   143     15.151805   4 C  s                51    -14.562767   2 C  s         
   235    -14.563967   6 C  s               326      9.187704   9 H  s         
     4      6.019401   1 C  s               108     -4.778256   3 C  py        
    97     -4.660337   3 C  s               189     -4.658949   5 C  s         
 
 Vector   63  Occ=0.000000D+00  E= 2.676763D-01
              MO Center= -2.7D-02,  4.3D-01, -1.3D-03, r^2= 2.0D+01
   Bfn.  Coefficient  Atom+Function         Bfn.  Coefficient  Atom+Function  
  ----- ------------  ---------------      ----- ------------  ---------------
    51     20.195160   2 C  s               235    -20.194896   6 C  s         
    97    -11.909566   3 C  s               189     11.909944   5 C  s         
    61     11.014327   2 C  px              245     10.263344   6 C  px        
    96     -8.754997   3 C  s               188      8.755157   5 C  s         
   279      8.764476   7 H  s               371     -8.764717  11 H  s         
 
 Vector   64  Occ=0.000000D+00  E= 2.748002D-01
              MO Center= -1.5D-03,  2.3D-02, -1.9D-03, r^2= 1.4D+01
   Bfn.  Coefficient  Atom+Function         Bfn.  Coefficient  Atom+Function  
  ----- ------------  ---------------      ----- ------------  ---------------
   143      8.949452   4 C  s                 5      8.702914   1 C  s         
   154      5.767506   4 C  py              279     -5.655282   7 H  s         
   371     -5.654864  11 H  s               302     -4.648647   8 H  s         
   348     -4.648251  10 H  s               325     -4.357952   9 H  s         
    16     -4.033193   1 C  py              246      3.262438   6 C  py        
 
 Vector   65  Occ=0.000000D+00  E= 2.829799D-01
              MO Center= -1.2D-02,  1.8D-01, -5.7D-04, r^2= 1.6D+01
   Bfn.  Coefficient  Atom+Function         Bfn.  Coefficient  Atom+Function  
  ----- ------------  ---------------      ----- ------------  ---------------
    12      9.529396   1 C  px               97      8.895302   3 C  s         
   189     -8.895352   5 C  s               302      8.100471   8 H  s         
   348     -8.100051  10 H  s                51     -8.022498   2 C  s         
   235      8.021936   6 C  s               199      7.632734   5 C  px        
   107      7.160580   3 C  px              150      6.193577   4 C  px        
 
 Vector   66  Occ=0.000000D+00  E= 2.954383D-01
              MO Center= -3.3D-03,  5.2D-02,  4.7D-04, r^2= 1.6D+01
   Bfn.  Coefficient  Atom+Function         Bfn.  Coefficient  Atom+Function  
  ----- ------------  ---------------      ----- ------------  ---------------
    63      3.201381   2 C  pz              109     -3.188624   3 C  pz        
   201      3.188210   5 C  pz              247     -3.201147   6 C  pz        
   289     -2.279532   7 H  pz              381      2.279561  11 H  pz        
    60      2.256827   2 C  pz              244     -2.256831   6 C  pz        
   312      2.261794   8 H  pz              358     -2.261688  10 H  pz        
 
 Vector   67  Occ=0.000000D+00  E= 2.962826D-01
              MO Center= -6.0D-02,  9.6D-01, -9.7D-04, r^2= 1.4D+01
   Bfn.  Coefficient  Atom+Function         Bfn.  Coefficient  Atom+Function  
  ----- ------------  ---------------      ----- ------------  ---------------
     4     10.426877   1 C  s                59     -5.742758   2 C  py        
   243     -5.634061   6 C  py                5      5.529128   1 C  s         
   105     -5.529523   3 C  py              197     -5.140997   5 C  py        
    16      4.276095   1 C  py              279     -4.188282   7 H  s         
   371     -4.188048  11 H  s                13      3.916045   1 C  py        
 
 Vector   68  Occ=0.000000D+00  E= 3.080400D-01
              MO Center=  1.7D-02, -2.7D-01,  1.9D-03, r^2= 1.5D+01
   Bfn.  Coefficient  Atom+Function         Bfn.  Coefficient  Atom+Function  
  ----- ------------  ---------------      ----- ------------  ---------------
   155      5.178117   4 C  pz               14      4.363255   1 C  pz        
   109     -3.739473   3 C  pz              201     -3.739614   5 C  pz        
   335     -2.710340   9 H  pz               60     -2.049344   2 C  pz        
   244     -2.049232   6 C  pz              152      1.852649   4 C  pz        
    17      1.841693   1 C  pz               29     -1.719245   1 C  d -1      
 
 Vector   69  Occ=0.000000D+00  E= 3.150433D-01
              MO Center=  4.7D-03, -7.3D-02,  7.0D-03, r^2= 9.1D+00
   Bfn.  Coefficient  Atom+Function         Bfn.  Coefficient  Atom+Function  
  ----- ------------  ---------------      ----- ------------  ---------------
   261      1.252853   6 C  d  1             77      1.133171   2 C  d  1      
   169     -1.082878   4 C  d  1             75     -1.023401   2 C  d -1      
   259      0.873132   6 C  d -1            289     -0.721118   7 H  pz        
   381      0.721118  11 H  pz               31      0.634502   1 C  d  1      
    60     -0.336717   2 C  pz              244      0.336932   6 C  pz        
 
 Vector   70  Occ=0.000000D+00  E= 3.284727D-01
              MO Center=  3.9D-02, -6.2D-01, -3.7D-03, r^2= 1.5D+01
   Bfn.  Coefficient  Atom+Function         Bfn.  Coefficient  Atom+Function  
  ----- ------------  ---------------      ----- ------------  ---------------
   142     12.140910   4 C  s                96      8.718326   3 C  s         
   188      8.718497   5 C  s               151     -6.839614   4 C  py        
   325     -5.843566   9 H  s                 4     -5.237025   1 C  s         
   334     -5.006353   9 H  py                5      4.906072   1 C  s         
   302     -4.389741   8 H  s               348     -4.389211  10 H  s         
 
 Vector   71  Occ=0.000000D+00  E= 3.347598D-01
              MO Center= -1.6D-03,  2.5D-02, -5.2D-04, r^2= 7.7D+00
   Bfn.  Coefficient  Atom+Function         Bfn.  Coefficient  Atom+Function  
  ----- ------------  ---------------      ----- ------------  ---------------
   289      2.029516   7 H  pz              381      2.029669  11 H  pz        
   335      1.839219   9 H  pz               14     -1.773378   1 C  pz        
   155     -1.702710   4 C  pz               63     -1.544870   2 C  pz        
   247     -1.544886   6 C  pz               77     -1.512286   2 C  d  1      
   261      1.412155   6 C  d  1            106     -1.285525   3 C  pz        
 
 Vector   72  Occ=0.000000D+00  E= 3.433158D-01
              MO Center=  2.4D-02, -3.9D-01, -9.4D-03, r^2= 1.2D+01
   Bfn.  Coefficient  Atom+Function         Bfn.  Coefficient  Atom+Function  
  ----- ------------  ---------------      ----- ------------  ---------------
   169      3.294029   4 C  d  1             31      2.702670   1 C  d  1      
   312     -2.480917   8 H  pz              358      2.480661  10 H  pz        
   123      2.184692   3 C  d  1            215      2.144158   5 C  d  1      
   106     -1.797251   3 C  pz              198      1.797258   5 C  pz        
   289     -1.427979   7 H  pz              381      1.427767  11 H  pz        
 
 Vector   73  Occ=0.000000D+00  E= 3.449255D-01
              MO Center= -3.6D-02,  5.6D-01, -9.0D-04, r^2= 1.2D+01
   Bfn.  Coefficient  Atom+Function         Bfn.  Coefficient  Atom+Function  
  ----- ------------  ---------------      ----- ------------  ---------------
   143     23.709604   4 C  s               325    -13.020263   9 H  s         
   279     11.903499   7 H  s               371     11.906823  11 H  s         
    51    -11.763759   2 C  s               235    -11.771977   6 C  s         
     5     -7.675520   1 C  s               197     -6.907410   5 C  py        
   105     -6.787479   3 C  py              243     -6.022392   6 C  py        
 
 Vector   74  Occ=0.000000D+00  E= 3.478292D-01
              MO Center=  9.7D-03, -1.5D-01,  1.0D-02, r^2= 1.2D+01
   Bfn.  Coefficient  Atom+Function         Bfn.  Coefficient  Atom+Function  
  ----- ------------  ---------------      ----- ------------  ---------------
    51     21.172384   2 C  s               235    -21.170074   6 C  s         
   302    -11.980621   8 H  s               348     11.982641  10 H  s         
    97     10.953594   3 C  s               189    -10.956310   5 C  s         
   279     -9.761990   7 H  s               371      9.755801  11 H  s         
    12     -8.092510   1 C  px              150     -7.036729   4 C  px        
 
 Vector   75  Occ=0.000000D+00  E= 3.481642D-01
              MO Center=  3.3D-02, -5.2D-01,  2.5D-03, r^2= 1.3D+01
   Bfn.  Coefficient  Atom+Function         Bfn.  Coefficient  Atom+Function  
  ----- ------------  ---------------      ----- ------------  ---------------
   155     -3.971539   4 C  pz               17      3.781312   1 C  pz        
   109      3.561651   3 C  pz              201      3.561751   5 C  pz        
    63     -3.451292   2 C  pz              247     -3.451550   6 C  pz        
   152     -3.002841   4 C  pz              213     -2.310160   5 C  d -1      
   289      2.266815   7 H  pz              381      2.266381  11 H  pz        
 
 Vector   76  Occ=0.000000D+00  E= 3.527379D-01
              MO Center=  3.3D-02, -5.2D-01, -8.5D-03, r^2= 1.4D+01
   Bfn.  Coefficient  Atom+Function         Bfn.  Coefficient  Atom+Function  
  ----- ------------  ---------------      ----- ------------  ---------------
    17      6.389931   1 C  pz               63     -5.858961   2 C  pz        
   247     -5.859033   6 C  pz              109      5.125821   3 C  pz        
   201      5.125853   5 C  pz              155     -4.853058   4 C  pz        
   335      3.957985   9 H  pz               14      3.792267   1 C  pz        
   167      3.075495   4 C  d -1             60     -2.681502   2 C  pz        
 
 Vector   77  Occ=0.000000D+00  E= 3.546349D-01
              MO Center= -2.0D-02,  3.1D-01,  8.0D-03, r^2= 1.5D+01
   Bfn.  Coefficient  Atom+Function         Bfn.  Coefficient  Atom+Function  
  ----- ------------  ---------------      ----- ------------  ---------------
     5     31.340581   1 C  s               143     15.877639   4 C  s         
    51    -15.734169   2 C  s               235    -15.731251   6 C  s         
   151    -11.071495   4 C  py              196     -7.590332   5 C  px        
    50      7.381843   2 C  s               234      7.381403   6 C  s         
    13      7.273561   1 C  py              104      7.150001   3 C  px        
 
 Vector   78  Occ=0.000000D+00  E= 3.599047D-01
              MO Center= -4.7D-02,  7.5D-01, -5.3D-04, r^2= 1.3D+01
   Bfn.  Coefficient  Atom+Function         Bfn.  Coefficient  Atom+Function  
  ----- ------------  ---------------      ----- ------------  ---------------
   289      3.405976   7 H  pz              381     -3.406070  11 H  pz        
    60      3.157828   2 C  pz              244     -3.157857   6 C  pz        
    77     -3.083421   2 C  d  1            121     -3.088193   3 C  d -1      
   259      3.025637   6 C  d -1            213      2.786799   5 C  d -1      
   312     -2.763617   8 H  pz              358      2.763511  10 H  pz        
 
 Vector   79  Occ=0.000000D+00  E= 3.685615D-01
              MO Center=  3.6D-02, -5.7D-01, -1.1D-03, r^2= 1.3D+01
   Bfn.  Coefficient  Atom+Function         Bfn.  Coefficient  Atom+Function  
  ----- ------------  ---------------      ----- ------------  ---------------
    96     10.732141   3 C  s               188     10.731002   5 C  s         
   104     -8.499425   3 C  px              196      8.489825   5 C  px        
   142     -7.535418   4 C  s                 5      7.222860   1 C  s         
   212      5.397494   5 C  d -2            258      5.319586   6 C  d -2      
   120     -5.226340   3 C  d -2            242     -5.089718   6 C  px        
 
 Vector   80  Occ=0.000000D+00  E= 3.720969D-01
              MO Center=  2.0D-02, -3.1D-01,  1.3D-03, r^2= 1.3D+01
   Bfn.  Coefficient  Atom+Function         Bfn.  Coefficient  Atom+Function  
  ----- ------------  ---------------      ----- ------------  ---------------
    97      9.834761   3 C  s               189     -9.833579   5 C  s         
    50      9.031379   2 C  s               234     -9.030912   6 C  s         
   279     -5.478847   7 H  s               371      5.481230  11 H  s         
   357      5.246968  10 H  py              311     -5.125781   8 H  py        
   212     -4.882563   5 C  d -2             51     -4.813154   2 C  s         
 
 Vector   81  Occ=0.000000D+00  E= 3.819139D-01
              MO Center=  3.6D-02, -5.7D-01, -2.7D-03, r^2= 1.6D+01
   Bfn.  Coefficient  Atom+Function         Bfn.  Coefficient  Atom+Function  
  ----- ------------  ---------------      ----- ------------  ---------------
   166      9.080322   4 C  d -2            333      7.117880   9 H  px        
   150     -6.663427   4 C  px              216     -6.555868   5 C  d  2      
   124      6.100595   3 C  d  2            279      5.867396   7 H  s         
   371     -5.867653  11 H  s               310      5.085635   8 H  px        
   356      5.022394  10 H  px               96     -4.807824   3 C  s         
 
 Vector   82  Occ=0.000000D+00  E= 3.932673D-01
              MO Center= -2.9D-02,  4.6D-01, -6.7D-03, r^2= 1.5D+01
   Bfn.  Coefficient  Atom+Function         Bfn.  Coefficient  Atom+Function  
  ----- ------------  ---------------      ----- ------------  ---------------
    12     12.179950   1 C  px               51    -11.050208   2 C  s         
   235     11.052613   6 C  s                78     -9.086440   2 C  d  2      
   262      8.757658   6 C  d  2             15     -6.829788   1 C  px        
   216      6.674657   5 C  d  2            153     -5.862879   4 C  px        
   124     -5.832556   3 C  d  2            379     -5.816100  11 H  px        
 
 Vector   83  Occ=0.000000D+00  E= 3.960257D-01
              MO Center= -5.2D-02,  8.3D-01,  8.2D-03, r^2= 1.2D+01
   Bfn.  Coefficient  Atom+Function         Bfn.  Coefficient  Atom+Function  
  ----- ------------  ---------------      ----- ------------  ---------------
   152     -7.529893   4 C  pz              106      7.334895   3 C  pz        
   198      7.335032   5 C  pz               60     -6.479204   2 C  pz        
   244     -6.479255   6 C  pz              167     -6.332806   4 C  d -1      
   215      5.117348   5 C  d  1            123     -4.711123   3 C  d  1      
    14      4.572124   1 C  pz              259      4.025570   6 C  d -1      
 
 Vector   84  Occ=0.000000D+00  E= 4.017334D-01
              MO Center= -3.3D-02,  5.2D-01,  4.9D-03, r^2= 1.5D+01
   Bfn.  Coefficient  Atom+Function         Bfn.  Coefficient  Atom+Function  
  ----- ------------  ---------------      ----- ------------  ---------------
     5     51.749232   1 C  s                51    -19.781787   2 C  s         
   235    -19.778383   6 C  s                97    -17.390110   3 C  s         
   189    -17.387193   5 C  s               143     11.665893   4 C  s         
   142    -10.272571   4 C  s                 4     -9.671344   1 C  s         
    50     -7.940006   2 C  s               234     -7.940822   6 C  s         
 
 Vector   85  Occ=0.000000D+00  E= 4.053111D-01
              MO Center= -5.4D-03,  8.6D-02, -3.9D-03, r^2= 1.3D+01
   Bfn.  Coefficient  Atom+Function         Bfn.  Coefficient  Atom+Function  
  ----- ------------  ---------------      ----- ------------  ---------------
[...]
     Occ.   15 beta  a   ---  Virt.   21 beta  a    0.10241 X
     Occ.   19 beta  a   ---  Virt.   24 beta  a    0.22083 X
     Occ.   20 beta  a   ---  Virt.   22 beta  a   -0.14461 X
  ----------------------------------------------------------------------------
  Root  27         a              0.251973724 a.u.                6.8566 eV 
  <S2> =   1.6618
  ----------------------------------------------------------------------------
     Transition Moments    X  0.00041   Y -0.00725   Z -0.24501
     Transition Moments   XX -0.00079  XY  0.00229  XZ  0.01064
     Transition Moments   YY -0.03735  YZ -0.16700  ZZ -0.00197
     Dipole Oscillator Strength                    0.0100931318
     Electric Quadrupole                           0.0000000024
     Magnetic Dipole                               0.0000000311
     Total Oscillator Strength                     0.0100931653
 
     Occ.   19 alpha a   ---  Virt.   26 alpha a   -0.98228 X
     Occ.   19 alpha a   ---  Virt.   35 alpha a    0.07114 X
     Occ.   19 alpha a   ---  Virt.   36 alpha a    0.07363 X
     Occ.   20 alpha a   ---  Virt.   25 alpha a   -0.11466 X
     Occ.   20 beta  a   ---  Virt.   26 beta  a   -0.05038 X
  ----------------------------------------------------------------------------
  Root  28         a              0.252620505 a.u.                6.8742 eV 
  <S2> =   1.8894
  ----------------------------------------------------------------------------
     Transition Moments    X  0.00479   Y  0.00030   Z -0.00006
     Transition Moments   XX -0.00013  XY  0.00107  XZ -0.39288
     Transition Moments   YY  0.00012  YZ -0.02479  ZZ -0.00001
     Dipole Oscillator Strength                    0.0000038764
     Electric Quadrupole                           0.0000000133
     Magnetic Dipole                               0.0000000096
     Total Oscillator Strength                     0.0000038993
 
     Occ.   19 alpha a   ---  Virt.   25 alpha a    0.24750 X
     Occ.   20 alpha a   ---  Virt.   26 alpha a    0.96032 X
     Occ.   20 alpha a   ---  Virt.   35 alpha a   -0.06153 X
     Occ.   20 alpha a   ---  Virt.   36 alpha a   -0.06547 X
     Occ.   19 beta  a   ---  Virt.   26 beta  a   -0.06485 X
  ----------------------------------------------------------------------------
  Root  29         a              0.253986471 a.u.                6.9113 eV 
  <S2> =   1.6184
  ----------------------------------------------------------------------------
     Transition Moments    X -0.00629   Y -0.00039   Z -0.00001
     Transition Moments   XX  0.00027  XY -0.00206  XZ -0.49370
     Transition Moments   YY -0.00024  YZ -0.03112  ZZ -0.00000
     Dipole Oscillator Strength                    0.0000067256
     Electric Quadrupole                           0.0000000214
     Magnetic Dipole                               0.0000000109
     Total Oscillator Strength                     0.0000067578
 
     Occ.   20 alpha a   ---  Virt.   26 alpha a    0.06944 X
     Occ.   19 beta  a   ---  Virt.   26 beta  a    0.98515 X
     Occ.   19 beta  a   ---  Virt.   35 beta  a   -0.05783 X
     Occ.   19 beta  a   ---  Virt.   36 beta  a   -0.07402 X
     Occ.   20 beta  a   ---  Virt.   25 beta  a    0.09686 X
  ----------------------------------------------------------------------------
  Root  30         a              0.254755067 a.u.                6.9322 eV 
  <S2> =   0.7708
  ----------------------------------------------------------------------------
     Transition Moments    X -1.50326   Y -0.09503   Z  0.00000
     Transition Moments   XX -0.02428  XY  0.18985  XZ -0.00196
     Transition Moments   YY  0.02355  YZ -0.00012  ZZ -0.00006
     Dipole Oscillator Strength                    0.3853280403
     Electric Quadrupole                           0.0000000032
     Magnetic Dipole                               0.0000000195
     Total Oscillator Strength                     0.3853280630
 
     Occ.   19 alpha a   ---  Virt.   22 alpha a   -0.38008 X
     Occ.   19 alpha a   ---  Virt.   22 alpha a    0.05311 Y
     Occ.   20 alpha a   ---  Virt.   23 alpha a    0.42682 X
     Occ.   20 alpha a   ---  Virt.   23 alpha a   -0.05109 Y
     Occ.   20 alpha a   ---  Virt.   29 alpha a   -0.14083 X
     Occ.   21 alpha a   ---  Virt.   25 alpha a    0.07642 X
     Occ.   21 alpha a   ---  Virt.   27 alpha a   -0.38966 X
     Occ.   13 beta  a   ---  Virt.   21 beta  a    0.12799 X
     Occ.   15 beta  a   ---  Virt.   21 beta  a    0.27043 X
     Occ.   19 beta  a   ---  Virt.   24 beta  a    0.49844 X
     Occ.   19 beta  a   ---  Virt.   29 beta  a   -0.13913 X
     Occ.   20 beta  a   ---  Virt.   22 beta  a   -0.34837 X
     Occ.   20 beta  a   ---  Virt.   22 beta  a    0.05611 Y
  ----------------------------------------------------------------------------
  Root  31         a              0.255404729 a.u.                6.9499 eV 
  <S2> =   0.8013
  ----------------------------------------------------------------------------
     Transition Moments    X  0.04057   Y -0.63622   Z  0.00274
     Transition Moments   XX -0.65028  XY  0.07810  XZ -0.00054
     Transition Moments   YY -1.88542  YZ  0.00841  ZZ -0.14657
     Dipole Oscillator Strength                    0.0692031351
     Electric Quadrupole                           0.0000000716
     Magnetic Dipole                               0.0000000000
     Total Oscillator Strength                     0.0692032067
 
     Occ.   19 alpha a   ---  Virt.   23 alpha a    0.10547 X
     Occ.   20 alpha a   ---  Virt.   22 alpha a    0.11460 X
     Occ.   21 alpha a   ---  Virt.   26 alpha a    0.18449 X
     Occ.   21 alpha a   ---  Virt.   28 alpha a   -0.90983 X
     Occ.   21 alpha a   ---  Virt.   30 alpha a   -0.12847 X
     Occ.   21 alpha a   ---  Virt.   31 alpha a   -0.16278 X
     Occ.   21 alpha a   ---  Virt.   48 alpha a    0.05656 X
     Occ.   16 beta  a   ---  Virt.   21 beta  a    0.18860 X
     Occ.   19 beta  a   ---  Virt.   22 beta  a    0.10929 X
     Occ.   20 beta  a   ---  Virt.   24 beta  a    0.09632 X
  ----------------------------------------------------------------------------
  Root  32         a              0.260751084 a.u.                7.0954 eV 
  <S2> =   0.8002
  ----------------------------------------------------------------------------
     Transition Moments    X  0.00024   Y -0.00376   Z -0.09558
     Transition Moments   XX -0.00427  XY  0.00084  XZ  0.04440
     Transition Moments   YY -0.01750  YZ -0.70485  ZZ -0.00158
     Dipole Oscillator Strength                    0.0015903825
     Electric Quadrupole                           0.0000000471
     Magnetic Dipole                               0.0000000330
     Total Oscillator Strength                     0.0015904626
 
     Occ.   21 alpha a   ---  Virt.   29 alpha a    0.97947 X
     Occ.   21 alpha a   ---  Virt.   33 alpha a    0.17994 X
  ----------------------------------------------------------------------------
  Root  33         a              0.265400319 a.u.                7.2219 eV 
  <S2> =   1.7807
  ----------------------------------------------------------------------------
     Transition Moments    X  0.00180   Y  0.00012   Z  0.00000
     Transition Moments   XX -0.00012  XY  0.00092  XZ  0.54581
     Transition Moments   YY  0.00010  YZ  0.03438  ZZ  0.00000
     Dipole Oscillator Strength                    0.0000005789
     Electric Quadrupole                           0.0000000298
     Magnetic Dipole                               0.0000000006
     Total Oscillator Strength                     0.0000006092
 
     Occ.   20 beta  a   ---  Virt.   27 beta  a    0.99103 X
     Occ.   20 beta  a   ---  Virt.   38 beta  a   -0.09649 X
  ----------------------------------------------------------------------------
  Root  34         a              0.267188412 a.u.                7.2706 eV 
  <S2> =   0.8217
  ----------------------------------------------------------------------------
     Transition Moments    X -0.07576   Y  1.20066   Z  0.00142
     Transition Moments   XX -0.01886  XY  0.04279  XZ -0.00040
     Transition Moments   YY -0.69495  YZ  0.00634  ZZ -0.04596
     Dipole Oscillator Strength                    0.2578047881
     Electric Quadrupole                           0.0000000151
     Magnetic Dipole                               0.0000000000
     Total Oscillator Strength                     0.2578048032
 
     Occ.   17 alpha a   ---  Virt.   23 alpha a    0.08608 X
     Occ.   19 alpha a   ---  Virt.   23 alpha a   -0.30511 X
     Occ.   19 alpha a   ---  Virt.   29 alpha a   -0.16157 X
     Occ.   20 alpha a   ---  Virt.   22 alpha a   -0.22281 X
     Occ.   21 alpha a   ---  Virt.   28 alpha a   -0.30118 X
     Occ.   21 alpha a   ---  Virt.   30 alpha a    0.42777 X
     Occ.   21 alpha a   ---  Virt.   31 alpha a   -0.08027 X
     Occ.   14 beta  a   ---  Virt.   21 beta  a    0.08797 X
     Occ.   16 beta  a   ---  Virt.   21 beta  a   -0.50155 X
     Occ.   19 beta  a   ---  Virt.   22 beta  a   -0.22348 X
     Occ.   20 beta  a   ---  Virt.   24 beta  a   -0.30729 X
     Occ.   20 beta  a   ---  Virt.   29 beta  a   -0.34419 X
  ----------------------------------------------------------------------------
  Root  35         a              0.270807991 a.u.                7.3691 eV 
  <S2> =   2.7045
  ----------------------------------------------------------------------------
     Transition Moments    X -0.00036   Y  0.00574   Z -0.00955
     Transition Moments   XX -0.01081  XY -0.00108  XZ  0.00960
     Transition Moments   YY  0.00629  YZ -0.15171  ZZ -0.00190
     Dipole Oscillator Strength                    0.0000224383
     Electric Quadrupole                           0.0000000025
     Magnetic Dipole                               0.0000000000
     Total Oscillator Strength                     0.0000224408
 
     Occ.   20 alpha a   ---  Virt.   27 alpha a    0.79695 X
     Occ.   20 alpha a   ---  Virt.   38 alpha a   -0.08795 X
     Occ.   19 beta  a   ---  Virt.   27 beta  a   -0.57691 X
     Occ.   19 beta  a   ---  Virt.   38 beta  a    0.06822 X
     Occ.   20 beta  a   ---  Virt.   28 beta  a   -0.05391 X
     Occ.   20 beta  a   ---  Virt.   30 beta  a   -0.06118 X
  ----------------------------------------------------------------------------
  Root  36         a              0.271251533 a.u.                7.3811 eV 
  <S2> =   2.7408
  ----------------------------------------------------------------------------
     Transition Moments    X  0.04869   Y  0.00303   Z  0.00000
     Transition Moments   XX  0.00376  XY -0.02852  XZ  0.00186
     Transition Moments   YY -0.00373  YZ  0.00012  ZZ  0.00004
     Dipole Oscillator Strength                    0.0004304270
     Electric Quadrupole                           0.0000000001
     Magnetic Dipole                               0.0000000018
     Total Oscillator Strength                     0.0004304289
 
     Occ.   17 alpha a   ---  Virt.   22 alpha a    0.59780 X
     Occ.   17 alpha a   ---  Virt.   41 alpha a   -0.05240 X
     Occ.   19 alpha a   ---  Virt.   32 alpha a   -0.08384 X
     Occ.   20 alpha a   ---  Virt.   29 alpha a    0.16429 X
     Occ.   20 alpha a   ---  Virt.   44 alpha a   -0.22728 X
     Occ.   20 alpha a   ---  Virt.   47 alpha a    0.17407 X
     Occ.   17 beta  a   ---  Virt.   22 beta  a   -0.64453 X
     Occ.   17 beta  a   ---  Virt.   41 beta  a    0.05433 X
     Occ.   19 beta  a   ---  Virt.   29 beta  a   -0.10209 X
     Occ.   19 beta  a   ---  Virt.   44 beta  a    0.20062 X
     Occ.   19 beta  a   ---  Virt.   47 beta  a   -0.16662 X
     Occ.   20 beta  a   ---  Virt.   31 beta  a    0.10176 X
  ----------------------------------------------------------------------------
  Root  37         a              0.271753517 a.u.                7.3948 eV 
  <S2> =   1.0531
  ----------------------------------------------------------------------------
     Transition Moments    X -0.03218   Y  0.51041   Z -0.00297
     Transition Moments   XX -1.04917  XY -0.11399  XZ  0.00405
     Transition Moments   YY  0.75266  YZ -0.06415  ZZ -0.23887
     Dipole Oscillator Strength                    0.0473867976
     Electric Quadrupole                           0.0000000889
     Magnetic Dipole                               0.0000000001
     Total Oscillator Strength                     0.0473868865
 
     Occ.   17 alpha a   ---  Virt.   23 alpha a    0.06218 X
     Occ.   19 alpha a   ---  Virt.   23 alpha a   -0.09075 X
     Occ.   21 alpha a   ---  Virt.   30 alpha a   -0.79475 X
     Occ.   21 alpha a   ---  Virt.   31 alpha a    0.20480 X
     Occ.   21 alpha a   ---  Virt.   35 alpha a   -0.07411 X
     Occ.   21 alpha a   ---  Virt.   40 alpha a    0.05650 X
     Occ.   14 beta  a   ---  Virt.   21 beta  a    0.06298 X
     Occ.   16 beta  a   ---  Virt.   21 beta  a   -0.18782 X
     Occ.   19 beta  a   ---  Virt.   22 beta  a   -0.05822 X
     Occ.   19 beta  a   ---  Virt.   27 beta  a    0.06217 X
     Occ.   20 beta  a   ---  Virt.   24 beta  a   -0.09553 X
     Occ.   20 beta  a   ---  Virt.   29 beta  a   -0.48341 X
  ----------------------------------------------------------------------------
  Root  38         a              0.271807126 a.u.                7.3963 eV 
  <S2> =   0.8294
  ----------------------------------------------------------------------------
     Transition Moments    X  0.00251   Y -0.03983   Z -0.02472
     Transition Moments   XX  0.06814  XY  0.00815  XZ  0.05493
     Transition Moments   YY -0.06069  YZ -0.87014  ZZ  0.01953
     Dipole Oscillator Strength                    0.0003992288
     Electric Quadrupole                           0.0000000817
     Magnetic Dipole                               0.0000000038
     Total Oscillator Strength                     0.0003993144
 
     Occ.   20 alpha a   ---  Virt.   27 alpha a    0.57301 X
     Occ.   21 alpha a   ---  Virt.   30 alpha a    0.05853 X
     Occ.   19 beta  a   ---  Virt.   27 beta  a    0.79815 X
     Occ.   19 beta  a   ---  Virt.   38 beta  a   -0.07487 X
     Occ.   20 beta  a   ---  Virt.   28 beta  a   -0.12552 X
  ----------------------------------------------------------------------------
  Root  39         a              0.272285895 a.u.                7.4093 eV 
  <S2> =   1.7261
  ----------------------------------------------------------------------------
     Transition Moments    X  0.00265   Y  0.00018   Z  0.00002
     Transition Moments   XX  0.00033  XY -0.00280  XZ  0.54901
     Transition Moments   YY -0.00034  YZ  0.03488  ZZ -0.00000
     Dipole Oscillator Strength                    0.0000012795
     Electric Quadrupole                           0.0000000325
     Magnetic Dipole                               0.0000000013
     Total Oscillator Strength                     0.0000013134
 
     Occ.   19 alpha a   ---  Virt.   27 alpha a    0.99033 X
     Occ.   19 alpha a   ---  Virt.   38 alpha a   -0.09594 X
  ----------------------------------------------------------------------------
  Root  40         a              0.272508509 a.u.                7.4153 eV 
  <S2> =   1.9599
  ----------------------------------------------------------------------------
     Transition Moments    X  0.00211   Y -0.03340   Z -0.04148
     Transition Moments   XX  0.05402  XY  0.00530  XZ  0.02786
     Transition Moments   YY -0.02983  YZ -0.44050  ZZ  0.00687
     Dipole Oscillator Strength                    0.0005160913
     Electric Quadrupole                           0.0000000212
     Magnetic Dipole                               0.0000000053
     Total Oscillator Strength                     0.0005161178
 
     Occ.   19 alpha a   ---  Virt.   28 alpha a    0.11683 X
     Occ.   20 alpha a   ---  Virt.   27 alpha a   -0.12616 X
     Occ.   17 beta  a   ---  Virt.   21 beta  a    0.05487 X
     Occ.   19 beta  a   ---  Virt.   27 beta  a   -0.06749 X
     Occ.   20 beta  a   ---  Virt.   28 beta  a   -0.96875 X
     Occ.   20 beta  a   ---  Virt.   30 beta  a   -0.05579 X
     Occ.   20 beta  a   ---  Virt.   32 beta  a   -0.07455 X
     Occ.   20 beta  a   ---  Virt.   43 beta  a   -0.08095 X
 
              Target root =      1
          Target symmetry = none
      Ground state energy =   -231.646325336763
        Excitation energy =      0.106293821655
     Excited state energy =   -231.540031515108
 
  stored tddft:energy   -231.540031515108     

 Task  times  cpu:     3952.5s     wall:     4070.4s
 
 
                                NWChem Input Module
                                -------------------
 
 
 Summary of allocated global arrays
-----------------------------------
  No active global arrays



                         GA Statistics for process    0
                         ------------------------------

       create   destroy   get      put      acc     scatter   gather  read&inc
calls: 9587     9587     9.68e+06 4.06e+06 2.29e+06 5680        0      347     
number of processes/call 1.33e+00 1.75e+00 1.92e+00 0.00e+00 0.00e+00
bytes total:             8.78e+10 1.10e+10 9.61e+10 6.26e+04 0.00e+00 2.78e+03
bytes remote:            6.50e+10 1.11e+09 9.17e+10 0.00e+00 0.00e+00 0.00e+00
Max memory consumed for GA by this process: 205086464 bytes
 
MA_summarize_allocated_blocks: starting scan ...
MA_summarize_allocated_blocks: scan completed: 0 heap blocks, 0 stack blocks
MA usage statistics:

	allocation statistics:
					      heap	     stack
					      ----	     -----
	current number of blocks	         0	         0
	maximum number of blocks	        20	        52
	current total bytes		         0	         0
	maximum total bytes		   1166000	  68276408
	maximum total K-bytes		      1166	     68277
	maximum total M-bytes		         2	        69
 
 
                                     CITATION
                                     --------
                Please cite the following reference when publishing
                           results obtained with NWChem:
 
                 M. Valiev, E.J. Bylaska, N. Govind, K. Kowalski,
              T.P. Straatsma, H.J.J. van Dam, D. Wang, J. Nieplocha,
                        E. Apra, T.L. Windus, W.A. de Jong
                 "NWChem: a comprehensive and scalable open-source
                  solution for large scale molecular simulations"
                      Comput. Phys. Commun. 181, 1477 (2010)
                           doi:10.1016/j.cpc.2010.04.018
 
                                      AUTHORS
                                      -------
          E. Apra, E. J. Bylaska, W. A. de Jong, N. Govind, K. Kowalski,
       T. P. Straatsma, M. Valiev, H. J. J. van Dam, D. Wang, T. L. Windus,
        J. Hammond, J. Autschbach, K. Bhaskaran-Nair, J. Brabec, K. Lopata,
    S. A. Fischer, S. Krishnamoorthy, M. Jacquelin, W. Ma, M. Klemm, O. Villa,
      Y. Chen, V. Anisimov, F. Aquino, S. Hirata, M. T. Hackler, V. Konjkov,
            D. Mejia-Rodriguez, T. Risthaus, M. Malagoli, A. Marenich,
   A. Otero-de-la-Roza, J. Mullin, P. Nichols, R. Peverati, J. Pittner, Y. Zhao,
        P.-D. Fan, A. Fonari, M. J. Williamson, R. J. Harrison, J. R. Rehr,
      M. Dupuis, D. Silverstein, D. M. A. Smith, J. Nieplocha, V. Tipparaju,
    M. Krishnan, B. E. Van Kuiken, A. Vazquez-Mayagoitia, L. Jensen, M. Swart,
      Q. Wu, T. Van Voorhis, A. A. Auer, M. Nooijen, L. D. Crosby, E. Brown,
      G. Cisneros, G. I. Fann, H. Fruchtl, J. Garza, K. Hirao, R. A. Kendall,
      J. A. Nichols, K. Tsemekhman, K. Wolinski, J. Anchell, D. E. Bernholdt,
      P. Borowski, T. Clark, D. Clerc, H. Dachsel, M. J. O. Deegan, K. Dyall,
    D. Elwood, E. Glendening, M. Gutowski, A. C. Hess, J. Jaffe, B. G. Johnson,
     J. Ju, R. Kobayashi, R. Kutteh, Z. Lin, R. Littlefield, X. Long, B. Meng,
      T. Nakajima, S. Niu, L. Pollack, M. Rosing, K. Glaesemann, G. Sandrone,
      M. Stave, H. Taylor, G. Thomas, J. H. van Lenthe, A. T. Wong, Z. Zhang.

 Total times  cpu:     3952.5s     wall:     4070.5s
