 argument  1 = /storage/home/j/jbb5516/normalModes/mode1006.59-m.nw
 


============================== echo of input deck ==============================
echo
start

title "None"

geometry
C    -0.08747224    1.38830409    0.00002000
C    -1.26735482    0.69112092    0.00015076
C    -1.16733630   -0.70470852   -0.00045151
C     0.08291598   -1.31598916    0.00058717
C     1.24655610   -0.55261762   -0.00045138
C     1.17058620    0.84472727    0.00015071
H    -2.23189055    1.18090100   -0.00097783
H    -2.06748412   -1.30603725    0.00263374
H     0.15092404   -2.39537432   -0.00338001
H     2.21506130   -1.03620839    0.00263297
H     2.06601969    1.45169726   -0.00097686
symmetry c1
end

basis spherical
 * library "aug-cc-pvtz"
end

dft
 direct
 mult 2
 iterations 500
 xc b3lyp
end

tddft
 nroots 40
 notriplet
 algorithm 1
end
task tddft energy
================================================================================


                                         
                                         
 
 
              Northwest Computational Chemistry Package (NWChem) 6.8
              ------------------------------------------------------
 
 
                    Environmental Molecular Sciences Laboratory
                       Pacific Northwest National Laboratory
                                Richland, WA 99352
 
                              Copyright (c) 1994-2017
                       Pacific Northwest National Laboratory
                            Battelle Memorial Institute
 
             NWChem is an open-source computational chemistry package
                        distributed under the terms of the
                      Educational Community License (ECL) 2.0
             A copy of the license is included with this distribution
                              in the LICENSE.TXT file
 
                                  ACKNOWLEDGMENT
                                  --------------

            This software and its documentation were developed at the
            EMSL at Pacific Northwest National Laboratory, a multiprogram
            national laboratory, operated for the U.S. Department of Energy
            by Battelle under Contract Number DE-AC05-76RL01830. Support
            for this work was provided by the Department of Energy Office
            of Biological and Environmental Research, Office of Basic
            Energy Sciences, and the Office of Advanced Scientific Computing.


           Job information
           ---------------

    hostname        = comp-sc-0139.acib.production.int.aci.ics.psu.edu
    program         = /gpfs/group/lxj18/default/jeffprograms/nwchem-6.8.1/bin/LINUX64/nwchem
    date            = Sun Sep 20 13:54:40 2020

    compiled        = Wed_Oct_03_14:08:39_2018
    source          = /gpfs/group/lxj18/default/jeffprograms/nwchem-6.8.1
    nwchem branch   = 6.8.1
    nwchem revision = v6.8-143-gdb0d964
    ga revision     = 5.6.5
    use scalapack   = F
    input           = /storage/home/j/jbb5516/normalModes/mode1006.59-m.nw
    prefix          = mode1006.59-m.
    data base       = ./mode1006.59-m.db
    status          = startup
    nproc           =       20
    time left       =     -1s



           Memory information
           ------------------

    heap     =   13107200 doubles =    100.0 Mbytes
    stack    =   13107197 doubles =    100.0 Mbytes
    global   =   26214400 doubles =    200.0 Mbytes (distinct from heap & stack)
    total    =   52428797 doubles =    400.0 Mbytes
    verify   = yes
    hardfail = no 


           Directory information
           ---------------------
 
  0 permanent = .
  0 scratch   = .
 
 
 
 
                                NWChem Input Module
                                -------------------
 
 
                                       None
                                       ----

 Scaling coordinates for geometry "geometry" by  1.889725989
 (inverse scale =  0.529177249)

 Turning off AUTOSYM since
 SYMMETRY directive was detected!
 

          ------
          auto-z
          ------
 
 
                             Geometry "geometry" -> ""
                             -------------------------
 
 Output coordinates in angstroms (scale by  1.889725989 to convert to a.u.)
 
  No.       Tag          Charge          X              Y              Z
 ---- ---------------- ---------- -------------- -------------- --------------
    1 C                    6.0000    -0.08747224     1.38830409     0.00002082
    2 C                    6.0000    -1.26735482     0.69112092     0.00015158
    3 C                    6.0000    -1.16733630    -0.70470852    -0.00045069
    4 C                    6.0000     0.08291598    -1.31598916     0.00058799
    5 C                    6.0000     1.24655610    -0.55261762    -0.00045056
    6 C                    6.0000     1.17058620     0.84472727     0.00015153
    7 H                    1.0000    -2.23189055     1.18090100    -0.00097701
    8 H                    1.0000    -2.06748412    -1.30603725     0.00263456
    9 H                    1.0000     0.15092404    -2.39537432    -0.00337919
   10 H                    1.0000     2.21506130    -1.03620839     0.00263379
   11 H                    1.0000     2.06601969     1.45169726    -0.00097604
 
      Atomic Mass 
      ----------- 
 
      C                 12.000000
      H                  1.007825
 

 Effective nuclear repulsion energy (a.u.)     195.0639432323

            Nuclear Dipole moment (a.u.) 
            ----------------------------
        X                 Y               Z
 ---------------- ---------------- ----------------
    -0.0000000000     0.0000000000    -0.0000000000
 


                                Z-matrix (autoz)
                                -------- 

 Units are Angstrom for bonds and degrees for angles
 
      Type          Name      I     J     K     L     M      Value
      ----------- --------  ----- ----- ----- ----- ----- ----------
    1 Stretch                  1     2                       1.37047
    2 Stretch                  1     6                       1.37047
    3 Stretch                  2     3                       1.39941
    4 Stretch                  2     7                       1.08176
    5 Stretch                  3     4                       1.39169
    6 Stretch                  3     8                       1.08253
    7 Stretch                  4     5                       1.39169
    8 Stretch                  4     9                       1.08153
    9 Stretch                  5     6                       1.39941
   10 Stretch                  5    10                       1.08253
   11 Stretch                  6    11                       1.08176
   12 Bend                     1     2     3               116.47996
   13 Bend                     1     2     7               122.50054
   14 Bend                     1     6     5               116.47996
   15 Bend                     1     6    11               122.50056
   16 Bend                     2     1     6               126.05349
   17 Bend                     2     3     4               120.15371
   18 Bend                     2     3     8               119.64549
   19 Bend                     3     2     7               121.01942
   20 Bend                     3     4     5               120.67905
   21 Bend                     3     4     9               119.66002
   22 Bend                     4     3     8               120.20027
   23 Bend                     4     5     6               120.15370
   24 Bend                     4     5    10               120.20031
   25 Bend                     5     4     9               119.66005
   26 Bend                     5     6    11               121.01939
   27 Bend                     6     5    10               119.64546
   28 Torsion                  1     2     3     4           0.08217
   29 Torsion                  1     2     3     8         179.81647
   30 Torsion                  1     6     5     4          -0.08215
   31 Torsion                  1     6     5    10        -179.81652
   32 Torsion                  2     1     6     5           0.04100
   33 Torsion                  2     1     6    11         179.93645
   34 Torsion                  2     3     4     5          -0.12844
   35 Torsion                  2     3     4     9        -179.78715
   36 Torsion                  3     2     1     6          -0.04101
   37 Torsion                  3     4     5     6           0.12844
   38 Torsion                  3     4     5    10         179.86132
   39 Torsion                  4     3     2     7         179.97920
   40 Torsion                  4     5     6    11        -179.97926
   41 Torsion                  5     4     3     8        -179.86126
   42 Torsion                  6     1     2     7        -179.93638
   43 Torsion                  6     5     4     9         179.78714
   44 Torsion                  7     2     3     8          -0.28650
   45 Torsion                  8     3     4     9           0.48004
   46 Torsion                  9     4     5    10          -0.47998
   47 Torsion                 10     5     6    11           0.28638
 
 
            XYZ format geometry
            -------------------
    11
 geometry
 C                    -0.08747224     1.38830409     0.00002082
 C                    -1.26735482     0.69112092     0.00015158
 C                    -1.16733630    -0.70470852    -0.00045069
 C                     0.08291598    -1.31598916     0.00058799
 C                     1.24655610    -0.55261762    -0.00045056
 C                     1.17058620     0.84472727     0.00015153
 H                    -2.23189055     1.18090100    -0.00097701
 H                    -2.06748412    -1.30603725     0.00263456
 H                     0.15092404    -2.39537432    -0.00337919
 H                     2.21506130    -1.03620839     0.00263379
 H                     2.06601969     1.45169726    -0.00097604
 
 ==============================================================================
                                internuclear distances
 ------------------------------------------------------------------------------
       center one      |      center two      | atomic units |  angstroms
 ------------------------------------------------------------------------------
    2 C                |   1 C                |     2.58981  |     1.37047
    3 C                |   2 C                |     2.64450  |     1.39941
    4 C                |   3 C                |     2.62991  |     1.39169
    5 C                |   4 C                |     2.62991  |     1.39169
    6 C                |   1 C                |     2.58981  |     1.37047
    6 C                |   5 C                |     2.64450  |     1.39941
    7 H                |   2 C                |     2.04424  |     1.08176
    8 H                |   3 C                |     2.04569  |     1.08253
    9 H                |   4 C                |     2.04380  |     1.08153
   10 H                |   5 C                |     2.04569  |     1.08253
   11 H                |   6 C                |     2.04424  |     1.08176
 ------------------------------------------------------------------------------
                         number of included internuclear distances:         11
 ==============================================================================



 ==============================================================================
                                 internuclear angles
 ------------------------------------------------------------------------------
        center 1       |       center 2       |       center 3       |  degrees
 ------------------------------------------------------------------------------
    2 C                |   1 C                |   6 C                |   126.05
    1 C                |   2 C                |   3 C                |   116.48
    1 C                |   2 C                |   7 H                |   122.50
    3 C                |   2 C                |   7 H                |   121.02
    2 C                |   3 C                |   4 C                |   120.15
    2 C                |   3 C                |   8 H                |   119.65
    4 C                |   3 C                |   8 H                |   120.20
    3 C                |   4 C                |   5 C                |   120.68
    3 C                |   4 C                |   9 H                |   119.66
    5 C                |   4 C                |   9 H                |   119.66
    4 C                |   5 C                |   6 C                |   120.15
    4 C                |   5 C                |  10 H                |   120.20
    6 C                |   5 C                |  10 H                |   119.65
    1 C                |   6 C                |   5 C                |   116.48
    1 C                |   6 C                |  11 H                |   122.50
    5 C                |   6 C                |  11 H                |   121.02
 ------------------------------------------------------------------------------
                            number of included internuclear angles:         16
 ==============================================================================





 Summary of "ao basis" -> "" (spherical)
 ------------------------------------------------------------------------------
       Tag                 Description            Shells   Functions and Types
 ---------------- ------------------------------  ------  ---------------------
 *                        aug-cc-pvtz                 on all atoms 


 
                                 NWChem DFT Module
                                 -----------------
 
 
                                       None
 
 
                      Basis "ao basis" -> "ao basis" (spherical)
                      -----
  C (Carbon)
  ----------
            Exponent  Coefficients 
       -------------- ---------------------------------------------------------
  1 S  8.23600000E+03  0.000531
  1 S  1.23500000E+03  0.004108
  1 S  2.80800000E+02  0.021087
  1 S  7.92700000E+01  0.081853
  1 S  2.55900000E+01  0.234817
  1 S  8.99700000E+00  0.434401
  1 S  3.31900000E+00  0.346129
  1 S  3.64300000E-01 -0.008983
 
  2 S  8.23600000E+03 -0.000113
  2 S  1.23500000E+03 -0.000878
  2 S  2.80800000E+02 -0.004540
  2 S  7.92700000E+01 -0.018133
  2 S  2.55900000E+01 -0.055760
  2 S  8.99700000E+00 -0.126895
  2 S  3.31900000E+00 -0.170352
  2 S  3.64300000E-01  0.598684
 
  3 S  9.05900000E-01  1.000000
 
  4 S  1.28500000E-01  1.000000
 
  5 S  4.40200000E-02  1.000000
 
  6 P  1.87100000E+01  0.014031
  6 P  4.13300000E+00  0.086866
  6 P  1.20000000E+00  0.290216
 
  7 P  3.82700000E-01  1.000000
 
  8 P  1.20900000E-01  1.000000
 
  9 P  3.56900000E-02  1.000000
 
 10 D  1.09700000E+00  1.000000
 
 11 D  3.18000000E-01  1.000000
 
 12 D  1.00000000E-01  1.000000
 
 13 F  7.61000000E-01  1.000000
 
 14 F  2.68000000E-01  1.000000
 
  H (Hydrogen)
  ------------
            Exponent  Coefficients 
       -------------- ---------------------------------------------------------
  1 S  3.38700000E+01  0.006068
  1 S  5.09500000E+00  0.045308
  1 S  1.15900000E+00  0.202822
 
  2 S  3.25800000E-01  1.000000
 
  3 S  1.02700000E-01  1.000000
 
  4 S  2.52600000E-02  1.000000
 
  5 P  1.40700000E+00  1.000000
 
  6 P  3.88000000E-01  1.000000
 
  7 P  1.02000000E-01  1.000000
 
  8 D  1.05700000E+00  1.000000
 
  9 D  2.47000000E-01  1.000000
 


 Summary of "ao basis" -> "ao basis" (spherical)
 ------------------------------------------------------------------------------
       Tag                 Description            Shells   Functions and Types
 ---------------- ------------------------------  ------  ---------------------
 C                        aug-cc-pvtz               14       46   5s4p3d2f
 H                        aug-cc-pvtz                9       23   4s3p2d




 Summary of "ao basis" -> "ao basis" (spherical)
 ------------------------------------------------------------------------------
       Tag                 Description            Shells   Functions and Types
 ---------------- ------------------------------  ------  ---------------------
 C                        aug-cc-pvtz               14       46   5s4p3d2f
 H                        aug-cc-pvtz                9       23   4s3p2d


  Caching 1-el integrals 
 
            General Information
            -------------------
          SCF calculation type: DFT
          Wavefunction type:  spin polarized.
          No. of atoms     :    11
          No. of electrons :    41
           Alpha electrons :    21
            Beta electrons :    20
          Charge           :     0
          Spin multiplicity:     2
          Use of symmetry is: off; symmetry adaption is: off
          Maximum number of iterations: 500
          This is a Direct SCF calculation.
          AO basis - number of functions:   391
                     number of shells:   129
          Convergence on energy requested:  1.00D-06
          Convergence on density requested:  1.00D-05
          Convergence on gradient requested:  5.00D-04
 
              XC Information
              --------------
                         B3LYP Method XC Potential
                     Hartree-Fock (Exact) Exchange  0.200          
                        Slater Exchange Functional  0.800 local    
                    Becke 1988 Exchange Functional  0.720 non-local
              Lee-Yang-Parr Correlation Functional  0.810          
                  VWN I RPA Correlation Functional  0.190 local    
 
             Grid Information
             ----------------
          Grid used for XC integration:  medium    
          Radial quadrature: Mura-Knowles        
          Angular quadrature: Lebedev. 
          Tag              B.-S. Rad. Rad. Pts. Rad. Cut. Ang. Pts.
          ---              ---------- --------- --------- ---------
          C                   0.70       49          15.0       434
          H                   0.35       45          17.0       434
          Grid pruning is: on 
          Number of quadrature shells:   519
          Spatial weights used:  Erf1
 
          Convergence Information
          -----------------------
          Convergence aids based upon iterative change in 
          total energy or number of iterations. 
          Levelshifting, if invoked, occurs when the 
          HOMO/LUMO gap drops below (HL_TOL):  1.00D-02
          DIIS, if invoked, will attempt to extrapolate 
          using up to (NFOCK): 10 stored Fock matrices.

                    Damping( 0%)  Levelshifting(0.5)       DIIS
                  --------------- ------------------- ---------------
          dE  on:    start            ASAP                start   
          dE off:    2 iters        500 iters           500 iters 

 
      Screening Tolerance Information
      -------------------------------
          Density screening/tol_rho:  1.00D-10
          AO Gaussian exp screening on grid/accAOfunc:  14
          CD Gaussian exp screening on grid/accCDfunc:  20
          XC Gaussian exp screening on grid/accXCfunc:  20
          Schwarz screening/accCoul:  1.00D-08

 
 WARNING : Found     7 linear dependencies 
 S eigenvalue threshold:     1.00000E-05
 Smallest S eigenvalue :     1.46556E-06
 Largest  S eigenvalue :     7.76707E-06
 

 !! The overlap matrix has   7 vectors deemed linearly dependent with
    eigenvalues:
 1.47D-06 2.24D-06 2.83D-06 3.54D-06 5.28D-06 5.95D-06 7.77D-06
 
 
      Superposition of Atomic Density Guess
      -------------------------------------
 
 Sum of atomic energies:        -228.52307259
 
      Non-variational initial energy
      ------------------------------

 Total energy =    -232.667199
 1-e energy   =    -691.328416
 2-e energy   =     263.597274
 HOMO         =      -0.183326
 LUMO         =      -0.022269
 
   Time after variat. SCF:      9.8
   Time prior to 1st pass:      9.8

 Grid_pts file          = ./mode1006.59-m.gridpts.00
 Record size in doubles =  12289        No. of grid_pts per rec  =   3070
 Max. records in memory =      6        Max. recs in file   = 222839064

 Grid integrated density:      40.999765883004
 Requested integration accuracy:   0.10E-05

           Memory utilization after 1st SCF pass: 
           Heap Space remaining (MW):       12.96            12961280
          Stack Space remaining (MW):       13.10            13103676

   convergence    iter        energy       DeltaE   RMS-Dens  Diis-err    time
 ---------------- ----- ----------------- --------- --------- ---------  ------
 d= 0,ls=0.0,diis     1   -231.5815904422 -4.27D+02  6.18D-02  2.09D-01    22.2
                                                     6.98D-02  1.96D-01
 d= 0,ls=0.0,diis     2   -231.6398323355 -5.82D-02  6.09D-02  1.22D-02    34.6
                                                     6.87D-02  1.25D-02
 d= 0,ls=0.0,diis     3   -231.6446096982 -4.78D-03  1.28D-03  3.44D-03    46.9
                                                     1.38D-03  3.50D-03
 d= 0,ls=0.0,diis     4   -231.6457665222 -1.16D-03  2.03D-04  1.12D-03    59.2
                                                     2.07D-04  1.06D-03
 d= 0,ls=0.0,diis     5   -231.6462846954 -5.18D-04  3.40D-05  4.24D-05    71.6
                                                     3.12D-05  4.84D-05
  Resetting Diis
 d= 0,ls=0.0,diis     6   -231.6463125734 -2.79D-05  1.11D-05  7.80D-06    84.0
                                                     1.06D-05  6.30D-06
 d= 0,ls=0.0,diis     7   -231.6463187660 -6.19D-06  7.31D-06  2.13D-06    96.4
                                                     6.52D-06  2.39D-06
 d= 0,ls=0.0,diis     8   -231.6463198423 -1.08D-06  3.05D-06  5.48D-06   108.7
                                                     2.70D-06  4.82D-06
 d= 0,ls=0.0,diis     9   -231.6463231294 -3.29D-06  3.73D-06  3.84D-07   121.1
                                                     3.31D-06  3.27D-07
 d= 0,ls=0.0,diis    10   -231.6463244324 -1.30D-06  2.14D-06  1.90D-07   133.5
                                                     2.45D-06  2.89D-07
 d= 0,ls=0.0,diis    11   -231.6463248674 -4.35D-07  5.94D-07  1.19D-08   145.9
                                                     5.14D-07  9.03D-09


         Total DFT energy =     -231.646324867355
      One electron energy =     -696.560857686599
           Coulomb energy =      304.259775157007
    Exchange-Corr. energy =      -34.409185570033
 Nuclear repulsion energy =      195.063943232270

 Numeric. integr. density =       40.999984400270

     Total iterative time =    136.0s


 
                    DFT Final Alpha Molecular Orbital Analysis
                    ------------------------------------------
 
 Vector    1  Occ=1.000000D+00  E=-1.020525D+01
              MO Center= -8.7D-02,  1.4D+00,  2.1D-05, r^2= 3.0D-02
   Bfn.  Coefficient  Atom+Function         Bfn.  Coefficient  Atom+Function  
  ----- ------------  ---------------      ----- ------------  ---------------
     1      0.984164   1 C  s                 3      0.058854   1 C  s         
    50     -0.038422   2 C  s               234     -0.038423   6 C  s         
   143      0.037881   4 C  s               279      0.037950   7 H  s         
   371      0.037948  11 H  s                51     -0.030664   2 C  s         
   235     -0.030663   6 C  s                47      0.025288   2 C  s         
 
 Vector    2  Occ=1.000000D+00  E=-1.019183D+01
              MO Center= -7.3D-01, -6.3D-01, -4.2D-04, r^2= 9.6D-01
   Bfn.  Coefficient  Atom+Function         Bfn.  Coefficient  Atom+Function  
  ----- ------------  ---------------      ----- ------------  ---------------
    93      0.874159   3 C  s               185      0.411948   5 C  s         
    47      0.176764   2 C  s               142     -0.092905   4 C  s         
   231      0.071984   6 C  s               139      0.055746   4 C  s         
    95      0.052266   3 C  s               302      0.049052   8 H  s         
   325      0.048095   9 H  s               234      0.036373   6 C  s         
 
 Vector    3  Occ=1.000000D+00  E=-1.019180D+01
              MO Center=  8.1D-01, -5.2D-01, -4.2D-04, r^2= 9.8D-01
   Bfn.  Coefficient  Atom+Function         Bfn.  Coefficient  Atom+Function  
  ----- ------------  ---------------      ----- ------------  ---------------
   185      0.872152   5 C  s                93     -0.407743   3 C  s         
   231      0.190346   6 C  s                47     -0.100655   2 C  s         
    50      0.062540   2 C  s               348      0.059053  10 H  s         
    51      0.052890   2 C  s               187      0.051927   5 C  s         
   279     -0.051674   7 H  s               234     -0.051093   6 C  s         
 
 Vector    4  Occ=1.000000D+00  E=-1.019034D+01
              MO Center= -1.1D+00,  6.4D-01,  1.3D-04, r^2= 3.9D-01
   Bfn.  Coefficient  Atom+Function         Bfn.  Coefficient  Atom+Function  
  ----- ------------  ---------------      ----- ------------  ---------------
    47      0.940293   2 C  s               231      0.221303   6 C  s         
    93     -0.191952   3 C  s               279      0.058560   7 H  s         
    49      0.054938   2 C  s               143      0.037884   4 C  s         
     4     -0.035233   1 C  s               185     -0.033114   5 C  s         
   142     -0.032005   4 C  s               189      0.031690   5 C  s         
 
 Vector    5  Occ=1.000000D+00  E=-1.019033D+01
              MO Center=  1.0D+00,  7.7D-01,  1.2D-04, r^2= 4.0D-01
   Bfn.  Coefficient  Atom+Function         Bfn.  Coefficient  Atom+Function  
  ----- ------------  ---------------      ----- ------------  ---------------
   231      0.938683   6 C  s                47     -0.214440   2 C  s         
   185     -0.197588   5 C  s                93      0.056922   3 C  s         
   371      0.056258  11 H  s               233      0.054441   6 C  s         
    97      0.045927   3 C  s                96      0.041035   3 C  s         
   189     -0.039680   5 C  s                12     -0.037461   1 C  px        
 
 Vector    6  Occ=1.000000D+00  E=-1.018432D+01
              MO Center=  8.3D-02, -1.3D+00,  5.8D-04, r^2= 3.5D-02
   Bfn.  Coefficient  Atom+Function         Bfn.  Coefficient  Atom+Function  
  ----- ------------  ---------------      ----- ------------  ---------------
   139      0.984285   4 C  s               141      0.057792   4 C  s         
    96     -0.045913   3 C  s               188     -0.045914   5 C  s         
   325      0.046008   9 H  s               143     -0.043508   4 C  s         
     4      0.040385   1 C  s                93     -0.039664   3 C  s         
   185     -0.039749   5 C  s               151      0.036019   4 C  py        
 
 Vector    7  Occ=1.000000D+00  E=-8.724604D-01
              MO Center= -6.3D-03,  9.9D-02,  3.0D-06, r^2= 2.0D+00
   Bfn.  Coefficient  Atom+Function         Bfn.  Coefficient  Atom+Function  
  ----- ------------  ---------------      ----- ------------  ---------------
     2      0.214063   1 C  s                48      0.202671   2 C  s         
   232      0.202654   6 C  s                94      0.195596   3 C  s         
   186      0.195579   5 C  s               140      0.188217   4 C  s         
    50      0.090236   2 C  s               234      0.090226   6 C  s         
    96      0.088098   3 C  s               188      0.088092   5 C  s         
 
 Vector    8  Occ=1.000000D+00  E=-7.627320D-01
              MO Center= -6.3D-03,  1.0D-01,  7.0D-05, r^2= 2.8D+00
   Bfn.  Coefficient  Atom+Function         Bfn.  Coefficient  Atom+Function  
  ----- ------------  ---------------      ----- ------------  ---------------
    48      0.250858   2 C  s               232     -0.250868   6 C  s         
    94      0.243819   3 C  s               186     -0.243826   5 C  s         
    50      0.146216   2 C  s               234     -0.146225   6 C  s         
   279     -0.129364   7 H  s               371      0.129368  11 H  s         
   150     -0.115521   4 C  px               97      0.110861   3 C  s         
 
 Vector    9  Occ=1.000000D+00  E=-7.537326D-01
              MO Center=  9.2D-03, -1.5D-01, -9.8D-05, r^2= 2.6D+00
   Bfn.  Coefficient  Atom+Function         Bfn.  Coefficient  Atom+Function  
  ----- ------------  ---------------      ----- ------------  ---------------
   140     -0.300918   4 C  s                 2      0.278554   1 C  s         
    94     -0.148872   3 C  s               186     -0.148865   5 C  s         
    48      0.148025   2 C  s               142     -0.147422   4 C  s         
   232      0.148016   6 C  s                96     -0.104914   3 C  s         
   188     -0.104912   5 C  s                 4      0.103007   1 C  s         
 
 Vector   10  Occ=1.000000D+00  E=-6.187398D-01
              MO Center= -2.5D-03,  3.9D-02,  2.6D-04, r^2= 3.6D+00
   Bfn.  Coefficient  Atom+Function         Bfn.  Coefficient  Atom+Function  
  ----- ------------  ---------------      ----- ------------  ---------------
    94     -0.208567   3 C  s               186      0.208562   5 C  s         
    48      0.199457   2 C  s               232     -0.199463   6 C  s         
    50      0.183358   2 C  s               234     -0.183365   6 C  s         
    96     -0.146990   3 C  s               188      0.146979   5 C  s         
     6     -0.127295   1 C  px              144      0.116927   4 C  px        
 
 Vector   11  Occ=1.000000D+00  E=-6.035487D-01
              MO Center=  5.4D-03, -8.6D-02, -1.1D-04, r^2= 3.5D+00
   Bfn.  Coefficient  Atom+Function         Bfn.  Coefficient  Atom+Function  
  ----- ------------  ---------------      ----- ------------  ---------------
   142      0.258357   4 C  s                 2      0.238938   1 C  s         
   140      0.218766   4 C  s                 4      0.198686   1 C  s         
    94     -0.138339   3 C  s               186     -0.138358   5 C  s         
    50     -0.122719   2 C  s               234     -0.122709   6 C  s         
    96     -0.119269   3 C  s               188     -0.119281   5 C  s         
 
 Vector   12  Occ=1.000000D+00  E=-5.277264D-01
              MO Center=  9.4D-03, -1.5D-01, -4.2D-04, r^2= 4.1D+00
   Bfn.  Coefficient  Atom+Function         Bfn.  Coefficient  Atom+Function  
  ----- ------------  ---------------      ----- ------------  ---------------
   148      0.159261   4 C  py              145      0.138835   4 C  py        
   324     -0.126841   9 H  s                55      0.105301   2 C  px        
   240     -0.104901   6 C  py              323     -0.100376   9 H  s         
   237     -0.096179   6 C  py              193     -0.094438   5 C  px        
   278     -0.094489   7 H  s               370     -0.094483  11 H  s         
 
 Vector   13  Occ=1.000000D+00  E=-4.645296D-01
              MO Center= -6.7D-03,  1.0D-01,  6.5D-06, r^2= 2.7D+00
   Bfn.  Coefficient  Atom+Function         Bfn.  Coefficient  Atom+Function  
  ----- ------------  ---------------      ----- ------------  ---------------
     9      0.189042   1 C  px                6      0.175363   1 C  px        
   147      0.172356   4 C  px              144      0.159073   4 C  px        
   239     -0.136869   6 C  px              194     -0.134749   5 C  py        
    56     -0.131373   2 C  py               55     -0.121399   2 C  px        
   191     -0.121433   5 C  py              236     -0.121875   6 C  px        
 
 Vector   14  Occ=1.000000D+00  E=-4.631580D-01
              MO Center=  1.0D-02, -1.6D-01,  5.3D-04, r^2= 4.8D+00
   Bfn.  Coefficient  Atom+Function         Bfn.  Coefficient  Atom+Function  
  ----- ------------  ---------------      ----- ------------  ---------------
     2      0.176558   1 C  s               301      0.136703   8 H  s         
   347      0.136678  10 H  s               140     -0.129402   4 C  s         
   193      0.127765   5 C  px              196      0.120313   5 C  px        
   101     -0.118804   3 C  px              190      0.118565   5 C  px        
    96      0.117522   3 C  s               104     -0.117389   3 C  px        
 
 Vector   15  Occ=1.000000D+00  E=-4.399775D-01
              MO Center= -1.3D-02,  2.1D-01,  7.0D-05, r^2= 4.0D+00
   Bfn.  Coefficient  Atom+Function         Bfn.  Coefficient  Atom+Function  
  ----- ------------  ---------------      ----- ------------  ---------------
   240      0.143967   6 C  py              102      0.139210   3 C  py        
   237      0.132906   6 C  py              278     -0.131462   7 H  s         
   370      0.131459  11 H  s                99      0.130194   3 C  py        
    55      0.129423   2 C  px               56     -0.128746   2 C  py        
   194     -0.126949   5 C  py               53     -0.119657   2 C  py        
 
 Vector   16  Occ=1.000000D+00  E=-3.990530D-01
              MO Center=  4.9D-02, -7.8D-01, -3.0D-04, r^2= 3.3D+00
   Bfn.  Coefficient  Atom+Function         Bfn.  Coefficient  Atom+Function  
  ----- ------------  ---------------      ----- ------------  ---------------
   148      0.233501   4 C  py              145      0.209183   4 C  py        
   324     -0.198591   9 H  s               151      0.172683   4 C  py        
   323     -0.154023   9 H  s                10      0.138639   1 C  py        
    13      0.120967   1 C  py              240      0.115203   6 C  py        
    56      0.109429   2 C  py                7      0.107923   1 C  py        
 
 Vector   17  Occ=1.000000D+00  E=-3.836997D-01
              MO Center= -7.7D-03,  1.2D-01, -5.2D-04, r^2= 2.7D+00
   Bfn.  Coefficient  Atom+Function         Bfn.  Coefficient  Atom+Function  
  ----- ------------  ---------------      ----- ------------  ---------------
    11      0.173446   1 C  pz               57      0.156405   2 C  pz        
   241      0.156393   6 C  pz              103      0.152222   3 C  pz        
   195      0.152209   5 C  pz              149      0.145880   4 C  pz        
     8      0.136821   1 C  pz               54      0.125779   2 C  pz        
   238      0.125770   6 C  pz              100      0.121724   3 C  pz        
 
 Vector   18  Occ=1.000000D+00  E=-3.659892D-01
              MO Center=  9.1D-03, -1.4D-01,  3.5D-04, r^2= 4.1D+00
   Bfn.  Coefficient  Atom+Function         Bfn.  Coefficient  Atom+Function  
  ----- ------------  ---------------      ----- ------------  ---------------
   147     -0.169331   4 C  px              101      0.165178   3 C  px        
   193      0.165098   5 C  px              144     -0.159884   4 C  px        
     9      0.149415   1 C  px               98      0.149456   3 C  px        
   190      0.149153   5 C  px                6      0.141597   1 C  px        
   196      0.135656   5 C  px              104      0.133535   3 C  px        
 
 Vector   19  Occ=1.000000D+00  E=-2.685141D-01
              MO Center=  9.1D-04, -1.5D-02,  8.7D-04, r^2= 3.0D+00
   Bfn.  Coefficient  Atom+Function         Bfn.  Coefficient  Atom+Function  
  ----- ------------  ---------------      ----- ------------  ---------------
    11      0.245299   1 C  pz              149     -0.238555   4 C  pz        
     8      0.192907   1 C  pz              146     -0.190709   4 C  pz        
    14      0.176324   1 C  pz              152     -0.171627   4 C  pz        
   103     -0.126596   3 C  pz              195     -0.126467   5 C  pz        
    57      0.114765   2 C  pz              241      0.114883   6 C  pz        
 
 Vector   20  Occ=1.000000D+00  E=-2.678705D-01
              MO Center= -3.8D-03,  6.1D-02, -4.3D-04, r^2= 3.1D+00
   Bfn.  Coefficient  Atom+Function         Bfn.  Coefficient  Atom+Function  
  ----- ------------  ---------------      ----- ------------  ---------------
   103      0.207440   3 C  pz              195     -0.207521   5 C  pz        
    57      0.203846   2 C  pz              241     -0.203783   6 C  pz        
   100      0.165271   3 C  pz              192     -0.165336   5 C  pz        
    54      0.163240   2 C  pz              238     -0.163190   6 C  pz        
    60      0.150530   2 C  pz              106      0.149950   3 C  pz        
 
 Vector   21  Occ=1.000000D+00  E=-2.484186D-01
              MO Center= -8.2D-02,  1.3D+00, -3.9D-04, r^2= 2.3D+00
   Bfn.  Coefficient  Atom+Function         Bfn.  Coefficient  Atom+Function  
  ----- ------------  ---------------      ----- ------------  ---------------
    10      0.385993   1 C  py               13      0.337688   1 C  py        
     5      0.335235   1 C  s                 7      0.299343   1 C  py        
     4      0.279445   1 C  s                 2      0.138349   1 C  s         
   243     -0.136194   6 C  py               59     -0.134139   2 C  py        
   102      0.112397   3 C  py              194      0.112409   5 C  py        
 
 Vector   22  Occ=0.000000D+00  E=-2.600785D-02
              MO Center= -4.3D-03,  6.8D-02, -7.0D-04, r^2= 4.3D+00
   Bfn.  Coefficient  Atom+Function         Bfn.  Coefficient  Atom+Function  
  ----- ------------  ---------------      ----- ------------  ---------------
   109     -0.320094   3 C  pz              201      0.320073   5 C  pz        
    63      0.314640   2 C  pz              247     -0.314627   6 C  pz        
    60      0.226972   2 C  pz              244     -0.226964   6 C  pz        
   106     -0.223738   3 C  pz              198      0.223725   5 C  pz        
    57      0.218766   2 C  pz              241     -0.218761   6 C  pz        
 
 Vector   23  Occ=0.000000D+00  E=-1.861398D-02
              MO Center=  3.1D-03, -5.0D-02,  7.6D-04, r^2= 4.3D+00
   Bfn.  Coefficient  Atom+Function         Bfn.  Coefficient  Atom+Function  
  ----- ------------  ---------------      ----- ------------  ---------------
   155      0.439595   4 C  pz               17      0.373543   1 C  pz        
   152      0.273935   4 C  pz               11      0.258950   1 C  pz        
   149      0.250783   4 C  pz               14      0.240486   1 C  pz        
   109     -0.226074   3 C  pz              201     -0.226085   5 C  pz        
     8      0.200622   1 C  pz               63     -0.198203   2 C  pz        
 
 Vector   24  Occ=0.000000D+00  E=-1.011001D-02
              MO Center=  6.0D-02, -9.5D-01,  7.1D-05, r^2= 2.0D+01
   Bfn.  Coefficient  Atom+Function         Bfn.  Coefficient  Atom+Function  
  ----- ------------  ---------------      ----- ------------  ---------------
     5      1.446680   1 C  s               279     -0.976473   7 H  s         
   371     -0.976470  11 H  s               326     -0.741578   9 H  s         
   303     -0.730323   8 H  s               349     -0.730190  10 H  s         
   302     -0.650226   8 H  s               348     -0.650236  10 H  s         
   325     -0.588345   9 H  s                51      0.561517   2 C  s         
 
 Vector   25  Occ=0.000000D+00  E= 4.382007D-03
              MO Center=  1.6D-02, -2.6D-01,  2.3D-03, r^2= 2.7D+01
   Bfn.  Coefficient  Atom+Function         Bfn.  Coefficient  Atom+Function  
  ----- ------------  ---------------      ----- ------------  ---------------
    51      2.732057   2 C  s               235     -2.731771   6 C  s         
    97      2.672894   3 C  s               189     -2.672902   5 C  s         
   303      1.996682   8 H  s               349     -1.996798  10 H  s         
    15      1.866781   1 C  px              153      1.807641   4 C  px        
   280      1.540161   7 H  s               372     -1.540041  11 H  s         
 
 Vector   26  Occ=0.000000D+00  E= 8.728840D-03
              MO Center=  4.6D-03, -7.3D-02, -3.5D-03, r^2= 2.7D+01
   Bfn.  Coefficient  Atom+Function         Bfn.  Coefficient  Atom+Function  
  ----- ------------  ---------------      ----- ------------  ---------------
   143      6.246043   4 C  s                51     -4.009291   2 C  s         
   235     -4.009476   6 C  s               326      2.932227   9 H  s         
     5      2.589322   1 C  s               280     -2.388376   7 H  s         
   372     -2.388380  11 H  s               154      1.947241   4 C  py        
   246      1.933993   6 C  py               62      1.829845   2 C  py        
 
 Vector   27  Occ=0.000000D+00  E= 2.670497D-02
              MO Center= -1.5D-02,  2.4D-01,  7.7D-04, r^2= 3.1D+01
   Bfn.  Coefficient  Atom+Function         Bfn.  Coefficient  Atom+Function  
  ----- ------------  ---------------      ----- ------------  ---------------
   280      3.932333   7 H  s               372     -3.932409  11 H  s         
    51      3.659074   2 C  s               235     -3.659459   6 C  s         
   303     -3.601853   8 H  s               349      3.601696  10 H  s         
    61      2.221986   2 C  px               97     -2.189566   3 C  s         
   189      2.189573   5 C  s               199     -2.040762   5 C  px        
 
 Vector   28  Occ=0.000000D+00  E= 3.221484D-02
              MO Center=  3.9D-02, -6.3D-01, -4.6D-03, r^2= 2.9D+01
   Bfn.  Coefficient  Atom+Function         Bfn.  Coefficient  Atom+Function  
  ----- ------------  ---------------      ----- ------------  ---------------
     5      6.392590   1 C  s               326     -4.999044   9 H  s         
   303      3.725896   8 H  s               349      3.726217  10 H  s         
    97     -2.179113   3 C  s               154     -2.177246   4 C  py        
   189     -2.178757   5 C  s               199     -1.648280   5 C  px        
   245      1.633650   6 C  px               61     -1.580139   2 C  px        
 
 Vector   29  Occ=0.000000D+00  E= 4.329123D-02
              MO Center=  1.4D-02, -2.2D-01,  2.2D-02, r^2= 1.3D+01
   Bfn.  Coefficient  Atom+Function         Bfn.  Coefficient  Atom+Function  
  ----- ------------  ---------------      ----- ------------  ---------------
   155     -0.598649   4 C  pz               63     -0.576332   2 C  pz        
   247     -0.576295   6 C  pz                5      0.562128   1 C  s         
   143      0.306189   4 C  s                51     -0.291467   2 C  s         
   235     -0.292449   6 C  s                17      0.260416   1 C  pz        
    60      0.154858   2 C  pz              244      0.154873   6 C  pz        
 
 Vector   30  Occ=0.000000D+00  E= 5.496369D-02
              MO Center=  9.4D-03, -1.5D-01, -2.9D-02, r^2= 1.5D+01
   Bfn.  Coefficient  Atom+Function         Bfn.  Coefficient  Atom+Function  
  ----- ------------  ---------------      ----- ------------  ---------------
     5     10.700328   1 C  s               143      5.278992   4 C  s         
    51     -4.483137   2 C  s               235     -4.483076   6 C  s         
   303     -2.799621   8 H  s               349     -2.799557  10 H  s         
   326      2.058301   9 H  s               199      2.005768   5 C  px        
    97     -1.950705   3 C  s               189     -1.950602   5 C  s         
 
 Vector   31  Occ=0.000000D+00  E= 6.335074D-02
              MO Center= -4.1D-02,  6.5D-01,  4.0D-03, r^2= 2.8D+01
   Bfn.  Coefficient  Atom+Function         Bfn.  Coefficient  Atom+Function  
  ----- ------------  ---------------      ----- ------------  ---------------
     5     24.371374   1 C  s                51     -9.849221   2 C  s         
   235     -9.849023   6 C  s               143      7.621664   4 C  s         
    97     -6.511958   3 C  s               189     -6.511880   5 C  s         
   326      5.864199   9 H  s               154      4.770156   4 C  py        
   303     -4.681703   8 H  s               349     -4.681849  10 H  s         
 
 Vector   32  Occ=0.000000D+00  E= 6.574537D-02
              MO Center=  1.6D-03, -2.5D-02, -3.3D-03, r^2= 1.8D+01
   Bfn.  Coefficient  Atom+Function         Bfn.  Coefficient  Atom+Function  
  ----- ------------  ---------------      ----- ------------  ---------------
   109      0.976556   3 C  pz              201     -0.976537   5 C  pz        
    63      0.770275   2 C  pz              247     -0.770248   6 C  pz        
   169     -0.677060   4 C  d  1             31     -0.583211   1 C  d  1      
   106      0.492458   3 C  pz              198     -0.492467   5 C  pz        
    60      0.488348   2 C  pz              244     -0.488323   6 C  pz        
 
 Vector   33  Occ=0.000000D+00  E= 6.826324D-02
              MO Center= -1.2D-02,  1.9D-01,  1.6D-02, r^2= 1.8D+01
   Bfn.  Coefficient  Atom+Function         Bfn.  Coefficient  Atom+Function  
  ----- ------------  ---------------      ----- ------------  ---------------
    63      1.024094   2 C  pz              247      1.024062   6 C  pz        
   109     -0.811815   3 C  pz              201     -0.811702   5 C  pz        
   155     -0.750832   4 C  pz               14      0.629440   1 C  pz        
   152     -0.617612   4 C  pz               17      0.458675   1 C  pz        
   213     -0.449585   5 C  d -1            121     -0.405780   3 C  d -1      
 
 Vector   34  Occ=0.000000D+00  E= 7.645676D-02
              MO Center=  9.2D-03, -1.6D-01,  4.7D-03, r^2= 3.4D+01
   Bfn.  Coefficient  Atom+Function         Bfn.  Coefficient  Atom+Function  
  ----- ------------  ---------------      ----- ------------  ---------------
    51     13.866374   2 C  s               235    -13.868273   6 C  s         
    97     12.411669   3 C  s               189    -12.412508   5 C  s         
    15      7.678552   1 C  px              153      7.710411   4 C  px        
   107      4.765010   3 C  px              303      4.691696   8 H  s         
   349     -4.691054  10 H  s               199      4.461876   5 C  px        
 
 Vector   35  Occ=0.000000D+00  E= 7.792195D-02
              MO Center=  2.1D-01, -3.3D+00, -9.7D-03, r^2= 2.1D+01
   Bfn.  Coefficient  Atom+Function         Bfn.  Coefficient  Atom+Function  
  ----- ------------  ---------------      ----- ------------  ---------------
   143     18.275821   4 C  s                51    -13.445608   2 C  s         
   235    -13.441335   6 C  s               326      7.026891   9 H  s         
    62      5.653586   2 C  py              246      5.677342   6 C  py        
   200      5.394533   5 C  py              154      5.274403   4 C  py        
   108      5.037416   3 C  py              279      4.190127   7 H  s         
 
 Vector   36  Occ=0.000000D+00  E= 8.155252D-02
              MO Center= -8.8D-02,  1.4D+00, -1.7D-03, r^2= 2.8D+01
   Bfn.  Coefficient  Atom+Function         Bfn.  Coefficient  Atom+Function  
  ----- ------------  ---------------      ----- ------------  ---------------
   143     20.712258   4 C  s                51     -8.944031   2 C  s         
   235     -8.946550   6 C  s               246      5.260346   6 C  py        
    62      5.166335   2 C  py              325     -4.966115   9 H  s         
   280     -4.564039   7 H  s               372     -4.564516  11 H  s         
   200      4.483018   5 C  py              326      4.499531   9 H  s         
 
 Vector   37  Occ=0.000000D+00  E= 8.317365D-02
              MO Center=  4.6D-02, -7.3D-01,  7.6D-04, r^2= 2.2D+01
   Bfn.  Coefficient  Atom+Function         Bfn.  Coefficient  Atom+Function  
  ----- ------------  ---------------      ----- ------------  ---------------
    97      4.940971   3 C  s               189     -4.941266   5 C  s         
    51     -3.128845   2 C  s               235      3.131272   6 C  s         
   108      2.795531   3 C  py              303      2.803716   8 H  s         
   349     -2.803738  10 H  s               200     -2.681679   5 C  py        
   153      2.603840   4 C  px               96      2.072721   3 C  s         
 
 Vector   38  Occ=0.000000D+00  E= 9.540237D-02
              MO Center= -5.5D-02,  8.8D-01, -1.7D-03, r^2= 3.1D+01
   Bfn.  Coefficient  Atom+Function         Bfn.  Coefficient  Atom+Function  
  ----- ------------  ---------------      ----- ------------  ---------------
    51     17.681246   2 C  s               235    -17.682943   6 C  s         
   280      7.217052   7 H  s               372     -7.217060  11 H  s         
    97     -6.903845   3 C  s               189      6.904096   5 C  s         
   108     -6.461791   3 C  py              303     -6.201494   8 H  s         
   349      6.200967  10 H  s               200      5.919535   5 C  py        
 
 Vector   39  Occ=0.000000D+00  E= 1.018003D-01
              MO Center= -7.1D-03,  1.1D-01,  2.0D-03, r^2= 1.9D+01
   Bfn.  Coefficient  Atom+Function         Bfn.  Coefficient  Atom+Function  
  ----- ------------  ---------------      ----- ------------  ---------------
    51     13.735483   2 C  s               235    -13.734545   6 C  s         
    97     10.884682   3 C  s               189    -10.885052   5 C  s         
    15     10.000187   1 C  px              153      9.717170   4 C  px        
   246     -6.096390   6 C  py              108     -6.023714   3 C  py        
   200      5.990615   5 C  py               62      5.909938   2 C  py        
 
 Vector   40  Occ=0.000000D+00  E= 1.064756D-01
              MO Center= -8.0D-03,  1.3D-01, -1.7D-03, r^2= 2.1D+01
   Bfn.  Coefficient  Atom+Function         Bfn.  Coefficient  Atom+Function  
  ----- ------------  ---------------      ----- ------------  ---------------
   143     18.277901   4 C  s                51     -9.937347   2 C  s         
   235     -9.937292   6 C  s                 5     -9.462769   1 C  s         
   107     -8.759395   3 C  px              199      7.978277   5 C  px        
   245     -7.044050   6 C  px              200      6.726634   5 C  py        
    61      6.489114   2 C  px              108      5.671925   3 C  py        
 
 Vector   41  Occ=0.000000D+00  E= 1.082038D-01
              MO Center= -1.0D-02,  1.6D-01, -6.5D-04, r^2= 2.2D+01
   Bfn.  Coefficient  Atom+Function         Bfn.  Coefficient  Atom+Function  
  ----- ------------  ---------------      ----- ------------  ---------------
    63      3.391645   2 C  pz              247     -3.391688   6 C  pz        
   109     -3.363134   3 C  pz              201      3.363513   5 C  pz        
    60      0.696888   2 C  pz              244     -0.696902   6 C  pz        
   106     -0.636826   3 C  pz              198      0.636917   5 C  pz        
    77     -0.380407   2 C  d  1            215      0.361297   5 C  d  1      
 
 Vector   42  Occ=0.000000D+00  E= 1.089657D-01
              MO Center=  3.0D-02, -4.7D-01,  2.1D-03, r^2= 2.1D+01
   Bfn.  Coefficient  Atom+Function         Bfn.  Coefficient  Atom+Function  
  ----- ------------  ---------------      ----- ------------  ---------------
   155      5.321906   4 C  pz              109     -3.443089   3 C  pz        
   201     -3.442785   5 C  pz               17      2.511249   1 C  pz        
   152      0.983517   4 C  pz              106     -0.603302   3 C  pz        
   198     -0.603256   5 C  pz              167      0.569385   4 C  d -1      
    14      0.504784   1 C  pz               63     -0.475527   2 C  pz        
 
 Vector   43  Occ=0.000000D+00  E= 1.094994D-01
              MO Center=  2.9D-02, -4.5D-01,  6.4D-04, r^2= 2.7D+01
   Bfn.  Coefficient  Atom+Function         Bfn.  Coefficient  Atom+Function  
  ----- ------------  ---------------      ----- ------------  ---------------
   326      7.669593   9 H  s               154      7.057635   4 C  py        
   303     -6.474817   8 H  s               349     -6.475167  10 H  s         
   143     -5.607385   4 C  s               108     -4.430868   3 C  py        
   200     -4.185362   5 C  py               62     -4.157088   2 C  py        
   246     -4.137559   6 C  py                4      3.925934   1 C  s         
 
 Vector   44  Occ=0.000000D+00  E= 1.178165D-01
              MO Center= -4.1D-02,  6.5D-01,  1.5D-03, r^2= 1.4D+01
   Bfn.  Coefficient  Atom+Function         Bfn.  Coefficient  Atom+Function  
  ----- ------------  ---------------      ----- ------------  ---------------
    17      6.879714   1 C  pz               63     -6.023033   2 C  pz        
   247     -6.022876   6 C  pz              109      5.052995   3 C  pz        
   201      5.052830   5 C  pz              155     -4.823261   4 C  pz        
    14      1.235855   1 C  pz               60     -1.020622   2 C  pz        
   244     -1.020587   6 C  pz              106      0.892445   3 C  pz        
 
 Vector   45  Occ=0.000000D+00  E= 1.264079D-01
              MO Center= -1.8D-02,  2.9D-01,  1.9D-04, r^2= 2.5D+01
   Bfn.  Coefficient  Atom+Function         Bfn.  Coefficient  Atom+Function  
  ----- ------------  ---------------      ----- ------------  ---------------
    51      7.587828   2 C  s               235     -7.587740   6 C  s         
   107      7.204255   3 C  px              199      7.127090   5 C  px        
   245     -7.037354   6 C  px               61     -6.927039   2 C  px        
    15      6.443753   1 C  px               97     -6.192845   3 C  s         
   189      6.192931   5 C  s               153     -5.818207   4 C  px        
 
 Vector   46  Occ=0.000000D+00  E= 1.274496D-01
              MO Center= -1.2D-02,  1.9D-01, -4.4D-04, r^2= 2.6D+01
   Bfn.  Coefficient  Atom+Function         Bfn.  Coefficient  Atom+Function  
  ----- ------------  ---------------      ----- ------------  ---------------
   154     -8.032043   4 C  py               16      7.425079   1 C  py        
   108      6.888916   3 C  py               62     -6.576379   2 C  py        
   200      6.571062   5 C  py              246     -6.383526   6 C  py        
   326     -4.051308   9 H  s                 5      3.564152   1 C  s         
   303      3.164510   8 H  s               349      3.164868  10 H  s         
 
 Vector   47  Occ=0.000000D+00  E= 1.609526D-01
              MO Center= -8.5D-03,  1.4D-01, -1.3D-03, r^2= 1.7D+01
   Bfn.  Coefficient  Atom+Function         Bfn.  Coefficient  Atom+Function  
  ----- ------------  ---------------      ----- ------------  ---------------
    17      8.192349   1 C  pz               63     -8.003980   2 C  pz        
   247     -8.004089   6 C  pz              155     -7.856184   4 C  pz        
   109      7.770898   3 C  pz              201      7.771007   5 C  pz        
    60     -1.191744   2 C  pz              106      1.192548   3 C  pz        
   198      1.192576   5 C  pz              244     -1.191775   6 C  pz        
 
 Vector   48  Occ=0.000000D+00  E= 1.660207D-01
              MO Center= -8.9D-02,  1.4D+00,  7.4D-04, r^2= 2.2D+01
   Bfn.  Coefficient  Atom+Function         Bfn.  Coefficient  Atom+Function  
  ----- ------------  ---------------      ----- ------------  ---------------
     5     59.208410   1 C  s                51    -25.978279   2 C  s         
   143     25.968619   4 C  s               235    -25.978644   6 C  s         
    97    -14.422637   3 C  s               189    -14.421774   5 C  s         
   154      7.430190   4 C  py              245      6.813540   6 C  px        
    61     -6.398690   2 C  px              326      6.156647   9 H  s         
 
 Vector   49  Occ=0.000000D+00  E= 1.754209D-01
              MO Center=  2.5D-02, -3.9D-01, -4.1D-03, r^2= 1.1D+01
   Bfn.  Coefficient  Atom+Function         Bfn.  Coefficient  Atom+Function  
  ----- ------------  ---------------      ----- ------------  ---------------
   335      1.104536   9 H  pz              312      1.079158   8 H  pz        
   358      1.079105  10 H  pz              289      0.973086   7 H  pz        
   381      0.973042  11 H  pz               17      0.959833   1 C  pz        
    63     -0.885306   2 C  pz              247     -0.885275   6 C  pz        
   106     -0.842958   3 C  pz              198     -0.842902   5 C  pz        
 
 Vector   50  Occ=0.000000D+00  E= 1.864274D-01
              MO Center=  3.4D-02, -5.5D-01,  3.8D-03, r^2= 1.5D+01
   Bfn.  Coefficient  Atom+Function         Bfn.  Coefficient  Atom+Function  
  ----- ------------  ---------------      ----- ------------  ---------------
     5     15.505510   1 C  s                97     -7.272638   3 C  s         
   189     -7.272408   5 C  s                51     -4.475876   2 C  s         
   235     -4.476162   6 C  s               325      4.423620   9 H  s         
    62     -4.043820   2 C  py              154      3.981212   4 C  py        
   246     -3.821911   6 C  py              302      3.261435   8 H  s         
 
 Vector   51  Occ=0.000000D+00  E= 1.980396D-01
              MO Center= -3.0D-02,  4.7D-01, -2.9D-03, r^2= 2.3D+01
   Bfn.  Coefficient  Atom+Function         Bfn.  Coefficient  Atom+Function  
  ----- ------------  ---------------      ----- ------------  ---------------
    51     44.603918   2 C  s               235    -44.588585   6 C  s         
    97     25.204728   3 C  s               189    -25.208835   5 C  s         
    15     18.495939   1 C  px              153     17.069283   4 C  px        
   302    -14.010491   8 H  s               348     14.011833  10 H  s         
   200      9.226006   5 C  py              108     -8.514269   3 C  py        
 
 Vector   52  Occ=0.000000D+00  E= 1.984405D-01
              MO Center=  4.6D-02, -7.3D-01,  6.3D-03, r^2= 2.3D+01
   Bfn.  Coefficient  Atom+Function         Bfn.  Coefficient  Atom+Function  
  ----- ------------  ---------------      ----- ------------  ---------------
   143     61.325576   4 C  s                51    -34.520549   2 C  s         
   235    -34.540300   6 C  s               325    -16.866284   9 H  s         
    62     14.721560   2 C  py              246     14.448650   6 C  py        
   200     13.769563   5 C  py              108     12.557004   3 C  py        
     5    -11.583603   1 C  s               279     11.178644   7 H  s         
 
 Vector   53  Occ=0.000000D+00  E= 2.154373D-01
              MO Center=  8.8D-02, -1.4D+00, -2.1D-03, r^2= 1.5D+01
   Bfn.  Coefficient  Atom+Function         Bfn.  Coefficient  Atom+Function  
  ----- ------------  ---------------      ----- ------------  ---------------
    97     13.858872   3 C  s               189    -13.858369   5 C  s         
    96      6.547446   3 C  s               188     -6.547513   5 C  s         
   153      6.324241   4 C  px              279     -5.135891   7 H  s         
   371      5.135656  11 H  s               303      4.736233   8 H  s         
   349     -4.735970  10 H  s               246     -4.493361   6 C  py        
 
 Vector   54  Occ=0.000000D+00  E= 2.182738D-01
              MO Center=  1.8D-02, -2.8D-01, -1.2D-03, r^2= 1.5D+01
   Bfn.  Coefficient  Atom+Function         Bfn.  Coefficient  Atom+Function  
  ----- ------------  ---------------      ----- ------------  ---------------
   143     25.788995   4 C  s                51    -17.780242   2 C  s         
   235    -17.791788   6 C  s                 5     15.975818   1 C  s         
    16     -6.446876   1 C  py              325     -6.050377   9 H  s         
    62      4.840174   2 C  py              246      4.722807   6 C  py        
   279      3.739592   7 H  s               371      3.740189  11 H  s         
 
 Vector   55  Occ=0.000000D+00  E= 2.191108D-01
              MO Center=  5.4D-03, -8.4D-02, -7.5D-03, r^2= 1.5D+01
   Bfn.  Coefficient  Atom+Function         Bfn.  Coefficient  Atom+Function  
  ----- ------------  ---------------      ----- ------------  ---------------
    51     19.800406   2 C  s               235    -19.791037   6 C  s         
   108     -8.471890   3 C  py              200      8.113644   5 C  py        
    15      7.528047   1 C  px              302     -6.933670   8 H  s         
   348      6.933711  10 H  s               153      6.304776   4 C  px        
   246     -4.034109   6 C  py               62      3.898004   2 C  py        
 
 Vector   56  Occ=0.000000D+00  E= 2.301178D-01
              MO Center= -1.8D-02,  2.9D-01, -1.0D-03, r^2= 1.8D+01
   Bfn.  Coefficient  Atom+Function         Bfn.  Coefficient  Atom+Function  
  ----- ------------  ---------------      ----- ------------  ---------------
   199      4.914209   5 C  px              107      4.648130   3 C  px        
   153     -3.564666   4 C  px               50     -3.272397   2 C  s         
   234      3.272003   6 C  s               303      3.159191   8 H  s         
   349     -3.158525  10 H  s                15     -2.625193   1 C  px        
   108      2.423462   3 C  py               59      1.952337   2 C  py        
 
 Vector   57  Occ=0.000000D+00  E= 2.311948D-01
              MO Center= -7.3D-05,  1.3D-03, -1.3D-03, r^2= 1.6D+01
   Bfn.  Coefficient  Atom+Function         Bfn.  Coefficient  Atom+Function  
  ----- ------------  ---------------      ----- ------------  ---------------
   106      2.142152   3 C  pz              198     -2.142158   5 C  pz        
    60      2.046093   2 C  pz              244     -2.046046   6 C  pz        
   312     -1.817793   8 H  pz              358      1.817844  10 H  pz        
   289     -1.719894   7 H  pz              381      1.719844  11 H  pz        
   169     -1.379530   4 C  d  1             31     -1.246490   1 C  d  1      
 
 Vector   58  Occ=0.000000D+00  E= 2.354261D-01
              MO Center= -1.3D-02,  2.1D-01,  1.9D-02, r^2= 1.6D+01
   Bfn.  Coefficient  Atom+Function         Bfn.  Coefficient  Atom+Function  
  ----- ------------  ---------------      ----- ------------  ---------------
   143     14.931881   4 C  s                51    -10.472827   2 C  s         
   235    -10.463094   6 C  s               107     -8.189280   3 C  px        
   199      7.760737   5 C  px               61      5.430766   2 C  px        
   245     -5.309204   6 C  px              303     -4.418898   8 H  s         
   349     -4.420524  10 H  s                 5      4.072804   1 C  s         
 
 Vector   59  Occ=0.000000D+00  E= 2.365099D-01
              MO Center= -4.5D-03,  7.3D-02,  1.3D-02, r^2= 1.7D+01
   Bfn.  Coefficient  Atom+Function         Bfn.  Coefficient  Atom+Function  
  ----- ------------  ---------------      ----- ------------  ---------------
    97    -33.155668   3 C  s               189     33.156153   5 C  s         
    51     31.529106   2 C  s               235    -31.533138   6 C  s         
    96    -14.380573   3 C  s               188     14.379908   5 C  s         
   279     10.793038   7 H  s               371    -10.791994  11 H  s         
   302    -10.653428   8 H  s               348     10.653272  10 H  s         
 
 Vector   60  Occ=0.000000D+00  E= 2.434540D-01
              MO Center=  2.7D-03, -4.3D-02, -2.3D-02, r^2= 1.5D+01
   Bfn.  Coefficient  Atom+Function         Bfn.  Coefficient  Atom+Function  
  ----- ------------  ---------------      ----- ------------  ---------------
   152      3.413737   4 C  pz               14     -3.025404   1 C  pz        
   289      2.170668   7 H  pz              381      2.170676  11 H  pz        
   335     -2.124542   9 H  pz              261      2.001538   6 C  d  1      
    77     -1.986880   2 C  d  1             63     -1.597727   2 C  pz        
   247     -1.597654   6 C  pz              155      1.369627   4 C  pz        
 
 Vector   61  Occ=0.000000D+00  E= 2.594930D-01
              MO Center=  3.8D-02, -6.0D-01,  1.4D-03, r^2= 1.7D+01
   Bfn.  Coefficient  Atom+Function         Bfn.  Coefficient  Atom+Function  
  ----- ------------  ---------------      ----- ------------  ---------------
     5      8.750904   1 C  s               108     -6.655822   3 C  py        
   200     -6.065381   5 C  py              303     -5.185731   8 H  s         
   349     -5.185669  10 H  s               199      5.085158   5 C  px        
   197     -4.835794   5 C  py              143     -4.770327   4 C  s         
   105     -4.734553   3 C  py              154      4.393842   4 C  py        
 
 Vector   62  Occ=0.000000D+00  E= 2.620186D-01
              MO Center=  6.8D-02, -1.1D+00,  3.4D-04, r^2= 1.7D+01
   Bfn.  Coefficient  Atom+Function         Bfn.  Coefficient  Atom+Function  
  ----- ------------  ---------------      ----- ------------  ---------------
     5     18.940256   1 C  s               154     15.371011   4 C  py        
   143     15.164109   4 C  s                51    -14.556440   2 C  s         
   235    -14.557671   6 C  s               326      9.179750   9 H  s         
     4      6.017249   1 C  s               108     -4.763337   3 C  py        
    97     -4.656550   3 C  s               189     -4.655188   5 C  s         
 
 Vector   63  Occ=0.000000D+00  E= 2.676753D-01
              MO Center= -2.7D-02,  4.3D-01, -6.6D-04, r^2= 2.0D+01
   Bfn.  Coefficient  Atom+Function         Bfn.  Coefficient  Atom+Function  
  ----- ------------  ---------------      ----- ------------  ---------------
    51     20.195085   2 C  s               235    -20.194826   6 C  s         
    97    -11.909136   3 C  s               189     11.909517   5 C  s         
    61     11.014166   2 C  px              245     10.263152   6 C  px        
    96     -8.755744   3 C  s               188      8.755900   5 C  s         
   279      8.764408   7 H  s               371     -8.764672  11 H  s         
 
 Vector   64  Occ=0.000000D+00  E= 2.747954D-01
              MO Center= -1.5D-03,  2.4D-02, -1.2D-03, r^2= 1.4D+01
   Bfn.  Coefficient  Atom+Function         Bfn.  Coefficient  Atom+Function  
  ----- ------------  ---------------      ----- ------------  ---------------
   143      8.947154   4 C  s                 5      8.697884   1 C  s         
   154      5.764026   4 C  py              279     -5.655540   7 H  s         
   371     -5.655110  11 H  s               302     -4.648526   8 H  s         
   348     -4.648136  10 H  s               325     -4.358282   9 H  s         
    16     -4.031797   1 C  py              246      3.261649   6 C  py        
 
 Vector   65  Occ=0.000000D+00  E= 2.829797D-01
              MO Center= -1.2D-02,  1.8D-01, -5.7D-04, r^2= 1.6D+01
   Bfn.  Coefficient  Atom+Function         Bfn.  Coefficient  Atom+Function  
  ----- ------------  ---------------      ----- ------------  ---------------
    12      9.527845   1 C  px               97      8.894890   3 C  s         
   189     -8.894935   5 C  s               302      8.100037   8 H  s         
   348     -8.099631  10 H  s                51     -8.021219   2 C  s         
   235      8.020655   6 C  s               199      7.632343   5 C  px        
   107      7.160175   3 C  px              150      6.193893   4 C  px        
 
 Vector   66  Occ=0.000000D+00  E= 2.954383D-01
              MO Center= -3.3D-03,  5.2D-02,  5.2D-05, r^2= 1.6D+01
   Bfn.  Coefficient  Atom+Function         Bfn.  Coefficient  Atom+Function  
  ----- ------------  ---------------      ----- ------------  ---------------
    63      3.201424   2 C  pz              109     -3.188700   3 C  pz        
   201      3.188305   5 C  pz              247     -3.201197   6 C  pz        
   289     -2.279572   7 H  pz              381      2.279599  11 H  pz        
    60      2.256877   2 C  pz              244     -2.256871   6 C  pz        
   312      2.261755   8 H  pz              358     -2.261661  10 H  pz        
 
 Vector   67  Occ=0.000000D+00  E= 2.962828D-01
              MO Center= -6.0D-02,  9.6D-01, -4.6D-04, r^2= 1.4D+01
   Bfn.  Coefficient  Atom+Function         Bfn.  Coefficient  Atom+Function  
  ----- ------------  ---------------      ----- ------------  ---------------
     4     10.427189   1 C  s                59     -5.742842   2 C  py        
   243     -5.634082   6 C  py                5      5.529362   1 C  s         
   105     -5.528834   3 C  py              197     -5.140466   5 C  py        
    16      4.276221   1 C  py              279     -4.187662   7 H  s         
   371     -4.187386  11 H  s                13      3.915649   1 C  py        
 
 Vector   68  Occ=0.000000D+00  E= 3.080387D-01
              MO Center=  1.7D-02, -2.7D-01, -2.6D-03, r^2= 1.5D+01
   Bfn.  Coefficient  Atom+Function         Bfn.  Coefficient  Atom+Function  
  ----- ------------  ---------------      ----- ------------  ---------------
   155      5.177993   4 C  pz               14      4.363614   1 C  pz        
   109     -3.739439   3 C  pz              201     -3.739582   5 C  pz        
   335     -2.710750   9 H  pz               60     -2.049809   2 C  pz        
   244     -2.049699   6 C  pz              152      1.852169   4 C  pz        
    17      1.841372   1 C  pz               29     -1.719400   1 C  d -1      
 
 Vector   69  Occ=0.000000D+00  E= 3.150351D-01
              MO Center=  4.7D-03, -7.4D-02,  3.4D-03, r^2= 9.1D+00
   Bfn.  Coefficient  Atom+Function         Bfn.  Coefficient  Atom+Function  
  ----- ------------  ---------------      ----- ------------  ---------------
   261      1.252796   6 C  d  1             77      1.133048   2 C  d  1      
   169     -1.083173   4 C  d  1             75     -1.023869   2 C  d -1      
   259      0.873604   6 C  d -1            289     -0.720822   7 H  pz        
   381      0.720826  11 H  pz               31      0.634920   1 C  d  1      
    60     -0.336194   2 C  pz              244      0.336424   6 C  pz        
 
 Vector   70  Occ=0.000000D+00  E= 3.284641D-01
              MO Center=  3.9D-02, -6.2D-01,  1.8D-02, r^2= 1.5D+01
   Bfn.  Coefficient  Atom+Function         Bfn.  Coefficient  Atom+Function  
  ----- ------------  ---------------      ----- ------------  ---------------
   142     12.140591   4 C  s                96      8.718731   3 C  s         
   188      8.718861   5 C  s               151     -6.837538   4 C  py        
   325     -5.841597   9 H  s                 4     -5.241721   1 C  s         
   334     -5.004565   9 H  py                5      4.905260   1 C  s         
   302     -4.386713   8 H  s               348     -4.386090  10 H  s         
 
 Vector   71  Occ=0.000000D+00  E= 3.347635D-01
              MO Center= -1.6D-03,  2.5D-02, -1.3D-02, r^2= 7.7D+00
   Bfn.  Coefficient  Atom+Function         Bfn.  Coefficient  Atom+Function  
  ----- ------------  ---------------      ----- ------------  ---------------
   289      2.027590   7 H  pz              381      2.027734  11 H  pz        
   335      1.836664   9 H  pz               14     -1.772665   1 C  pz        
   155     -1.701271   4 C  pz               63     -1.542217   2 C  pz        
   247     -1.542234   6 C  pz               77     -1.510890   2 C  d  1      
   261      1.410975   6 C  d  1            106     -1.282782   3 C  pz        
 
 Vector   72  Occ=0.000000D+00  E= 3.433155D-01
              MO Center=  2.4D-02, -3.9D-01,  1.9D-02, r^2= 1.2D+01
   Bfn.  Coefficient  Atom+Function         Bfn.  Coefficient  Atom+Function  
  ----- ------------  ---------------      ----- ------------  ---------------
   169      3.294137   4 C  d  1             31      2.701888   1 C  d  1      
   312     -2.480945   8 H  pz              358      2.480679  10 H  pz        
   123      2.184621   3 C  d  1            215      2.143999   5 C  d  1      
   106     -1.797762   3 C  pz              198      1.797728   5 C  pz        
   289     -1.427316   7 H  pz              381      1.427097  11 H  pz        
 
 Vector   73  Occ=0.000000D+00  E= 3.449178D-01
              MO Center= -3.5D-02,  5.6D-01, -2.1D-02, r^2= 1.2D+01
   Bfn.  Coefficient  Atom+Function         Bfn.  Coefficient  Atom+Function  
  ----- ------------  ---------------      ----- ------------  ---------------
   143     23.687710   4 C  s               325    -13.015661   9 H  s         
   279     11.896137   7 H  s               371     11.899004  11 H  s         
    51    -11.750269   2 C  s               235    -11.757332   6 C  s         
     5     -7.677136   1 C  s               197     -6.900554   5 C  py        
   105     -6.780377   3 C  py              243     -6.018224   6 C  py        
 
 Vector   74  Occ=0.000000D+00  E= 3.478306D-01
              MO Center=  9.8D-03, -1.5D-01, -1.7D-02, r^2= 1.2D+01
   Bfn.  Coefficient  Atom+Function         Bfn.  Coefficient  Atom+Function  
  ----- ------------  ---------------      ----- ------------  ---------------
    51     21.167667   2 C  s               235    -21.160649   6 C  s         
   302    -11.977519   8 H  s               348     11.980217  10 H  s         
    97     10.956396   3 C  s               189    -10.958855   5 C  s         
   279     -9.762384   7 H  s               371      9.755429  11 H  s         
    12     -8.086618   1 C  px              150     -7.035547   4 C  px        
 
 Vector   75  Occ=0.000000D+00  E= 3.481720D-01
              MO Center=  3.3D-02, -5.2D-01,  2.5D-02, r^2= 1.3D+01
   Bfn.  Coefficient  Atom+Function         Bfn.  Coefficient  Atom+Function  
  ----- ------------  ---------------      ----- ------------  ---------------
   155     -3.974739   4 C  pz               17      3.786116   1 C  pz        
   109      3.565247   3 C  pz              201      3.565249   5 C  pz        
    63     -3.455892   2 C  pz              247     -3.455947   6 C  pz        
   152     -2.997890   4 C  pz              213     -2.308464   5 C  d -1      
   289      2.265854   7 H  pz              381      2.265388  11 H  pz        
 
 Vector   76  Occ=0.000000D+00  E= 3.527407D-01
              MO Center=  3.3D-02, -5.2D-01,  1.3D-02, r^2= 1.4D+01
   Bfn.  Coefficient  Atom+Function         Bfn.  Coefficient  Atom+Function  
  ----- ------------  ---------------      ----- ------------  ---------------
    17      6.383789   1 C  pz               63     -5.853185   2 C  pz        
   247     -5.853241   6 C  pz              109      5.120112   3 C  pz        
   201      5.120130   5 C  pz              155     -4.847549   4 C  pz        
   335      3.958879   9 H  pz               14      3.788240   1 C  pz        
   167      3.076009   4 C  d -1             60     -2.680422   2 C  pz        
 
 Vector   77  Occ=0.000000D+00  E= 3.546376D-01
              MO Center= -2.0D-02,  3.1D-01, -1.7D-02, r^2= 1.5D+01
   Bfn.  Coefficient  Atom+Function         Bfn.  Coefficient  Atom+Function  
  ----- ------------  ---------------      ----- ------------  ---------------
     5     31.316245   1 C  s               143     15.873100   4 C  s         
    51    -15.719849   2 C  s               235    -15.717006   6 C  s         
   151    -11.058123   4 C  py              196     -7.587212   5 C  px        
    50      7.369141   2 C  s               234      7.368719   6 C  s         
    13      7.267680   1 C  py              104      7.147338   3 C  px        
 
 Vector   78  Occ=0.000000D+00  E= 3.599054D-01
              MO Center= -4.7D-02,  7.5D-01, -2.4D-03, r^2= 1.3D+01
   Bfn.  Coefficient  Atom+Function         Bfn.  Coefficient  Atom+Function  
  ----- ------------  ---------------      ----- ------------  ---------------
   289      3.406155   7 H  pz              381     -3.406236  11 H  pz        
    60      3.157834   2 C  pz              244     -3.157850   6 C  pz        
    77     -3.083476   2 C  d  1            121     -3.088416   3 C  d -1      
   259      3.025835   6 C  d -1            213      2.787053   5 C  d -1      
   312     -2.763368   8 H  pz              358      2.763250  10 H  pz        
 
 Vector   79  Occ=0.000000D+00  E= 3.685604D-01
              MO Center=  3.6D-02, -5.7D-01, -2.8D-04, r^2= 1.3D+01
   Bfn.  Coefficient  Atom+Function         Bfn.  Coefficient  Atom+Function  
  ----- ------------  ---------------      ----- ------------  ---------------
    96     10.730087   3 C  s               188     10.728938   5 C  s         
   104     -8.499279   3 C  px              196      8.489736   5 C  px        
   142     -7.536788   4 C  s                 5      7.223311   1 C  s         
   212      5.398532   5 C  d -2            258      5.320294   6 C  d -2      
   120     -5.227160   3 C  d -2            242     -5.090766   6 C  px        
 
 Vector   80  Occ=0.000000D+00  E= 3.721006D-01
              MO Center=  2.0D-02, -3.1D-01,  3.2D-03, r^2= 1.3D+01
   Bfn.  Coefficient  Atom+Function         Bfn.  Coefficient  Atom+Function  
  ----- ------------  ---------------      ----- ------------  ---------------
    97      9.836386   3 C  s               189     -9.835176   5 C  s         
    50      9.027964   2 C  s               234     -9.027457   6 C  s         
   279     -5.481799   7 H  s               371      5.484155  11 H  s         
   357      5.245799  10 H  py              311     -5.124974   8 H  py        
   212     -4.881485   5 C  d -2             51     -4.808068   2 C  s         
 
 Vector   81  Occ=0.000000D+00  E= 3.819175D-01
              MO Center=  3.6D-02, -5.7D-01, -3.7D-03, r^2= 1.6D+01
   Bfn.  Coefficient  Atom+Function         Bfn.  Coefficient  Atom+Function  
  ----- ------------  ---------------      ----- ------------  ---------------
   166      9.080634   4 C  d -2            333      7.117804   9 H  px        
   150     -6.661773   4 C  px              216     -6.556072   5 C  d  2      
   124      6.100960   3 C  d  2            279      5.865187   7 H  s         
   371     -5.865472  11 H  s               310      5.085070   8 H  px        
   356      5.021637  10 H  px               96     -4.804981   3 C  s         
 
 Vector   82  Occ=0.000000D+00  E= 3.932665D-01
              MO Center= -2.9D-02,  4.6D-01, -3.2D-04, r^2= 1.5D+01
   Bfn.  Coefficient  Atom+Function         Bfn.  Coefficient  Atom+Function  
  ----- ------------  ---------------      ----- ------------  ---------------
    12     12.181489   1 C  px               51    -11.053301   2 C  s         
   235     11.054895   6 C  s                78     -9.086754   2 C  d  2      
   262      8.757944   6 C  d  2             15     -6.830076   1 C  px        
   216      6.674465   5 C  d  2            153     -5.863892   4 C  px        
   124     -5.831983   3 C  d  2            379     -5.816507  11 H  px        
 
 Vector   83  Occ=0.000000D+00  E= 3.960235D-01
              MO Center= -5.2D-02,  8.3D-01, -1.5D-02, r^2= 1.2D+01
   Bfn.  Coefficient  Atom+Function         Bfn.  Coefficient  Atom+Function  
  ----- ------------  ---------------      ----- ------------  ---------------
   152     -7.529361   4 C  pz              106      7.334341   3 C  pz        
   198      7.334505   5 C  pz               60     -6.478825   2 C  pz        
   244     -6.478905   6 C  pz              167     -6.331734   4 C  d -1      
   215      5.116692   5 C  d  1            123     -4.710560   3 C  d  1      
    14      4.572317   1 C  pz              259      4.025223   6 C  d -1      
 
 Vector   84  Occ=0.000000D+00  E= 4.017339D-01
              MO Center= -3.3D-02,  5.2D-01,  1.7D-03, r^2= 1.5D+01
   Bfn.  Coefficient  Atom+Function         Bfn.  Coefficient  Atom+Function  
  ----- ------------  ---------------      ----- ------------  ---------------
     5     51.713428   1 C  s                51    -19.765306   2 C  s         
   235    -19.761770   6 C  s                97    -17.387960   3 C  s         
   189    -17.385284   5 C  s               143     11.651434   4 C  s         
   142    -10.272504   4 C  s                 4     -9.664679   1 C  s         
    50     -7.941937   2 C  s               234     -7.942782   6 C  s         
 
 Vector   85  Occ=0.000000D+00  E= 4.053070D-01
              MO Center= -5.5D-03,  8.7D-02,  4.1D-03, r^2= 1.3D+01
   Bfn.  Coefficient  Atom+Function         Bfn.  Coefficient  Atom+Function  
  ----- ------------  ---------------      ----- ------------  ---------------
[...]
  Root  27         a              0.251973626 a.u.                6.8566 eV 
  <S2> =   1.6619
  ----------------------------------------------------------------------------
     Transition Moments    X -0.00021   Y  0.00328   Z  0.24503
     Transition Moments   XX  0.00105  XY -0.00099  XZ -0.01065
     Transition Moments   YY  0.01631  YZ  0.16704  ZZ  0.00068
     Dipole Oscillator Strength                    0.0100873864
     Electric Quadrupole                           0.0000000024
     Magnetic Dipole                               0.0000000311
     Total Oscillator Strength                     0.0100874199
 
     Occ.   19 alpha a   ---  Virt.   26 alpha a    0.98231 X
     Occ.   19 alpha a   ---  Virt.   35 alpha a   -0.07114 X
     Occ.   19 alpha a   ---  Virt.   36 alpha a   -0.07363 X
     Occ.   20 alpha a   ---  Virt.   25 alpha a    0.11469 X
     Occ.   20 beta  a   ---  Virt.   26 beta  a    0.05039 X
  ----------------------------------------------------------------------------
  Root  28         a              0.252621275 a.u.                6.8742 eV 
  <S2> =   1.8893
  ----------------------------------------------------------------------------
     Transition Moments    X  0.00064   Y  0.00005   Z  0.00006
     Transition Moments   XX  0.00032  XY -0.00249  XZ  0.39296
     Transition Moments   YY -0.00026  YZ  0.02479  ZZ  0.00001
     Dipole Oscillator Strength                    0.0000000708
     Electric Quadrupole                           0.0000000133
     Magnetic Dipole                               0.0000000096
     Total Oscillator Strength                     0.0000000937
 
     Occ.   19 alpha a   ---  Virt.   25 alpha a   -0.24743 X
     Occ.   20 alpha a   ---  Virt.   26 alpha a   -0.96036 X
     Occ.   20 alpha a   ---  Virt.   35 alpha a    0.06153 X
     Occ.   20 alpha a   ---  Virt.   36 alpha a    0.06547 X
     Occ.   19 beta  a   ---  Virt.   26 beta  a    0.06478 X
  ----------------------------------------------------------------------------
  Root  29         a              0.253988627 a.u.                6.9114 eV 
  <S2> =   1.6186
  ----------------------------------------------------------------------------
     Transition Moments    X  0.01095   Y  0.00070   Z  0.00000
     Transition Moments   XX  0.00039  XY -0.00304  XZ  0.49356
     Transition Moments   YY -0.00031  YZ  0.03111  ZZ  0.00001
     Dipole Oscillator Strength                    0.0000203750
     Electric Quadrupole                           0.0000000213
     Magnetic Dipole                               0.0000000109
     Total Oscillator Strength                     0.0000204072
 
     Occ.   20 alpha a   ---  Virt.   26 alpha a   -0.06935 X
     Occ.   19 beta  a   ---  Virt.   26 beta  a   -0.98514 X
     Occ.   19 beta  a   ---  Virt.   35 beta  a    0.05778 X
     Occ.   19 beta  a   ---  Virt.   36 beta  a    0.07406 X
     Occ.   20 beta  a   ---  Virt.   25 beta  a   -0.09685 X
  ----------------------------------------------------------------------------
  Root  30         a              0.254755760 a.u.                6.9323 eV 
  <S2> =   0.7708
  ----------------------------------------------------------------------------
     Transition Moments    X  1.50318   Y  0.09502   Z -0.00000
     Transition Moments   XX  0.02429  XY -0.18991  XZ -0.00942
     Transition Moments   YY -0.02356  YZ -0.00059  ZZ  0.00006
     Dipole Oscillator Strength                    0.3852871716
     Electric Quadrupole                           0.0000000032
     Magnetic Dipole                               0.0000000195
     Total Oscillator Strength                     0.3852871944
 
     Occ.   19 alpha a   ---  Virt.   22 alpha a    0.38006 X
     Occ.   19 alpha a   ---  Virt.   22 alpha a   -0.05311 Y
     Occ.   20 alpha a   ---  Virt.   23 alpha a   -0.42680 X
     Occ.   20 alpha a   ---  Virt.   23 alpha a    0.05109 Y
     Occ.   20 alpha a   ---  Virt.   29 alpha a   -0.14080 X
     Occ.   21 alpha a   ---  Virt.   25 alpha a   -0.07644 X
     Occ.   21 alpha a   ---  Virt.   27 alpha a    0.38975 X
     Occ.   13 beta  a   ---  Virt.   21 beta  a   -0.12799 X
     Occ.   15 beta  a   ---  Virt.   21 beta  a   -0.27042 X
     Occ.   19 beta  a   ---  Virt.   24 beta  a   -0.49854 X
     Occ.   19 beta  a   ---  Virt.   29 beta  a    0.13910 X
     Occ.   20 beta  a   ---  Virt.   22 beta  a    0.34835 X
     Occ.   20 beta  a   ---  Virt.   22 beta  a   -0.05611 Y
  ----------------------------------------------------------------------------
  Root  31         a              0.255405182 a.u.                6.9499 eV 
  <S2> =   0.8012
  ----------------------------------------------------------------------------
     Transition Moments    X -0.04057   Y  0.63620   Z -0.00186
     Transition Moments   XX  0.65017  XY -0.07811  XZ  0.00063
     Transition Moments   YY  1.88543  YZ -0.01022  ZZ  0.14654
     Dipole Oscillator Strength                    0.0691986540
     Electric Quadrupole                           0.0000000716
     Magnetic Dipole                               0.0000000000
     Total Oscillator Strength                     0.0691987256
 
     Occ.   19 alpha a   ---  Virt.   23 alpha a   -0.10547 X
     Occ.   20 alpha a   ---  Virt.   22 alpha a   -0.11460 X
     Occ.   21 alpha a   ---  Virt.   26 alpha a   -0.18450 X
     Occ.   21 alpha a   ---  Virt.   28 alpha a    0.90987 X
     Occ.   21 alpha a   ---  Virt.   30 alpha a    0.12841 X
     Occ.   21 alpha a   ---  Virt.   31 alpha a    0.16283 X
     Occ.   21 alpha a   ---  Virt.   48 alpha a   -0.05655 X
     Occ.   16 beta  a   ---  Virt.   21 beta  a   -0.18858 X
     Occ.   19 beta  a   ---  Virt.   22 beta  a   -0.10929 X
     Occ.   20 beta  a   ---  Virt.   24 beta  a   -0.09635 X
  ----------------------------------------------------------------------------
  Root  32         a              0.260750933 a.u.                7.0954 eV 
  <S2> =   0.8002
  ----------------------------------------------------------------------------
     Transition Moments    X  0.00118   Y -0.01862   Z -0.09557
     Transition Moments   XX -0.01245  XY  0.00106  XZ  0.04440
     Transition Moments   YY -0.02921  YZ -0.70481  ZZ -0.00436
     Dipole Oscillator Strength                    0.0016480609
     Electric Quadrupole                           0.0000000471
     Magnetic Dipole                               0.0000000330
     Total Oscillator Strength                     0.0016481409
 
     Occ.   21 alpha a   ---  Virt.   29 alpha a   -0.97942 X
     Occ.   21 alpha a   ---  Virt.   33 alpha a    0.17990 X
  ----------------------------------------------------------------------------
  Root  33         a              0.265400885 a.u.                7.2219 eV 
  <S2> =   1.7807
  ----------------------------------------------------------------------------
     Transition Moments    X  0.00128   Y  0.00008   Z  0.00000
     Transition Moments   XX  0.00007  XY -0.00053  XZ  0.54580
     Transition Moments   YY -0.00008  YZ  0.03439  ZZ -0.00000
     Dipole Oscillator Strength                    0.0000002916
     Electric Quadrupole                           0.0000000298
     Magnetic Dipole                               0.0000000006
     Total Oscillator Strength                     0.0000003220
 
     Occ.   20 beta  a   ---  Virt.   27 beta  a    0.99103 X
     Occ.   20 beta  a   ---  Virt.   38 beta  a   -0.09649 X
  ----------------------------------------------------------------------------
  Root  34         a              0.267189007 a.u.                7.2706 eV 
  <S2> =   0.8217
  ----------------------------------------------------------------------------
     Transition Moments    X  0.07576   Y -1.20067   Z  0.00131
     Transition Moments   XX  0.01913  XY -0.04278  XZ -0.00011
     Transition Moments   YY  0.69512  YZ  0.00174  ZZ  0.04612
     Dipole Oscillator Strength                    0.2578091252
     Electric Quadrupole                           0.0000000151
     Magnetic Dipole                               0.0000000000
     Total Oscillator Strength                     0.2578091403
 
     Occ.   17 alpha a   ---  Virt.   23 alpha a   -0.08606 X
     Occ.   19 alpha a   ---  Virt.   23 alpha a    0.30511 X
     Occ.   19 alpha a   ---  Virt.   29 alpha a   -0.16157 X
     Occ.   20 alpha a   ---  Virt.   22 alpha a    0.22280 X
     Occ.   21 alpha a   ---  Virt.   28 alpha a    0.30112 X
     Occ.   21 alpha a   ---  Virt.   30 alpha a   -0.42756 X
     Occ.   21 alpha a   ---  Virt.   31 alpha a    0.08015 X
     Occ.   14 beta  a   ---  Virt.   21 beta  a   -0.08798 X
     Occ.   16 beta  a   ---  Virt.   21 beta  a    0.50145 X
     Occ.   19 beta  a   ---  Virt.   22 beta  a    0.22347 X
     Occ.   20 beta  a   ---  Virt.   24 beta  a    0.30737 X
     Occ.   20 beta  a   ---  Virt.   29 beta  a    0.34427 X
  ----------------------------------------------------------------------------
  Root  35         a              0.270808852 a.u.                7.3691 eV 
  <S2> =   2.7046
  ----------------------------------------------------------------------------
     Transition Moments    X  0.00020   Y -0.00308   Z  0.00955
     Transition Moments   XX  0.00657  XY  0.00067  XZ -0.00960
     Transition Moments   YY -0.00405  YZ  0.15174  ZZ  0.00106
     Dipole Oscillator Strength                    0.0000181754
     Electric Quadrupole                           0.0000000024
     Magnetic Dipole                               0.0000000000
     Total Oscillator Strength                     0.0000181778
 
     Occ.   20 alpha a   ---  Virt.   27 alpha a   -0.79697 X
     Occ.   20 alpha a   ---  Virt.   38 alpha a    0.08795 X
     Occ.   19 beta  a   ---  Virt.   27 beta  a    0.57691 X
     Occ.   19 beta  a   ---  Virt.   38 beta  a   -0.06822 X
     Occ.   20 beta  a   ---  Virt.   28 beta  a    0.05398 X
     Occ.   20 beta  a   ---  Virt.   30 beta  a    0.06118 X
  ----------------------------------------------------------------------------
  Root  36         a              0.271250878 a.u.                7.3811 eV 
  <S2> =   2.7407
  ----------------------------------------------------------------------------
     Transition Moments    X  0.04867   Y  0.00302   Z  0.00000
     Transition Moments   XX  0.00376  XY -0.02852  XZ -0.00380
     Transition Moments   YY -0.00373  YZ -0.00023  ZZ  0.00004
     Dipole Oscillator Strength                    0.0004300017
     Electric Quadrupole                           0.0000000001
     Magnetic Dipole                               0.0000000018
     Total Oscillator Strength                     0.0004300036
 
     Occ.   17 alpha a   ---  Virt.   22 alpha a    0.59777 X
     Occ.   17 alpha a   ---  Virt.   41 alpha a   -0.05240 X
     Occ.   19 alpha a   ---  Virt.   32 alpha a   -0.08384 X
     Occ.   20 alpha a   ---  Virt.   29 alpha a   -0.16434 X
     Occ.   20 alpha a   ---  Virt.   44 alpha a   -0.22728 X
     Occ.   20 alpha a   ---  Virt.   47 alpha a    0.17405 X
     Occ.   17 beta  a   ---  Virt.   22 beta  a   -0.64443 X
     Occ.   17 beta  a   ---  Virt.   41 beta  a    0.05431 X
     Occ.   19 beta  a   ---  Virt.   29 beta  a   -0.10211 X
     Occ.   19 beta  a   ---  Virt.   44 beta  a    0.20062 X
     Occ.   19 beta  a   ---  Virt.   47 beta  a   -0.16660 X
     Occ.   20 beta  a   ---  Virt.   31 beta  a    0.10176 X
  ----------------------------------------------------------------------------
  Root  37         a              0.271750534 a.u.                7.3947 eV 
  <S2> =   1.0601
  ----------------------------------------------------------------------------
     Transition Moments    X  0.03176   Y -0.50378   Z  0.00578
     Transition Moments   XX  1.03808  XY  0.11285  XZ -0.00789
     Transition Moments   YY -0.74565  YZ  0.12534  ZZ  0.23676
     Dipole Oscillator Strength                    0.0461673388
     Electric Quadrupole                           0.0000000883
     Magnetic Dipole                               0.0000000002
     Total Oscillator Strength                     0.0461674273
 
     Occ.   17 alpha a   ---  Virt.   23 alpha a   -0.06123 X
     Occ.   19 alpha a   ---  Virt.   23 alpha a    0.08911 X
     Occ.   20 alpha a   ---  Virt.   27 alpha a   -0.06085 X
     Occ.   21 alpha a   ---  Virt.   30 alpha a    0.78790 X
     Occ.   21 alpha a   ---  Virt.   31 alpha a   -0.20264 X
     Occ.   21 alpha a   ---  Virt.   35 alpha a    0.07331 X
     Occ.   21 alpha a   ---  Virt.   40 alpha a   -0.05600 X
     Occ.   14 beta  a   ---  Virt.   21 beta  a   -0.06216 X
     Occ.   16 beta  a   ---  Virt.   21 beta  a    0.18493 X
     Occ.   19 beta  a   ---  Virt.   22 beta  a    0.05714 X
     Occ.   19 beta  a   ---  Virt.   27 beta  a   -0.10247 X
     Occ.   20 beta  a   ---  Virt.   24 beta  a    0.09387 X
     Occ.   20 beta  a   ---  Virt.   28 beta  a    0.08936 X
     Occ.   20 beta  a   ---  Virt.   29 beta  a    0.48126 X
  ----------------------------------------------------------------------------
  Root  38         a              0.271808571 a.u.                7.3963 eV 
  <S2> =   0.8291
  ----------------------------------------------------------------------------
     Transition Moments    X  0.00442   Y -0.06997   Z -0.02433
     Transition Moments   XX  0.13708  XY  0.01521  XZ  0.05452
     Transition Moments   YY -0.10370  YZ -0.86363  ZZ  0.03393
     Dipole Oscillator Strength                    0.0009979278
     Electric Quadrupole                           0.0000000817
     Magnetic Dipole                               0.0000000036
     Total Oscillator Strength                     0.0009980131
 
     Occ.   20 alpha a   ---  Virt.   27 alpha a    0.57062 X
     Occ.   21 alpha a   ---  Virt.   30 alpha a    0.10450 X
     Occ.   19 beta  a   ---  Virt.   27 beta  a    0.79395 X
     Occ.   19 beta  a   ---  Virt.   38 beta  a   -0.07444 X
     Occ.   20 beta  a   ---  Virt.   28 beta  a   -0.11769 X
     Occ.   20 beta  a   ---  Virt.   29 beta  a    0.05966 X
  ----------------------------------------------------------------------------
  Root  39         a              0.272285594 a.u.                7.4093 eV 
  <S2> =   1.7262
  ----------------------------------------------------------------------------
     Transition Moments    X -0.00192   Y -0.00016   Z -0.00002
     Transition Moments   XX -0.00024  XY  0.00243  XZ -0.54901
     Transition Moments   YY  0.00026  YZ -0.03487  ZZ  0.00002
     Dipole Oscillator Strength                    0.0000006752
     Electric Quadrupole                           0.0000000325
     Magnetic Dipole                               0.0000000013
     Total Oscillator Strength                     0.0000007090
 
     Occ.   19 alpha a   ---  Virt.   27 alpha a   -0.99031 X
     Occ.   19 alpha a   ---  Virt.   38 alpha a    0.09593 X
  ----------------------------------------------------------------------------
  Root  40         a              0.272506531 a.u.                7.4153 eV 
  <S2> =   1.9515
  ----------------------------------------------------------------------------
     Transition Moments    X  0.00522   Y -0.08278   Z -0.04122
     Transition Moments   XX  0.12786  XY  0.01310  XZ  0.02775
     Transition Moments   YY -0.07920  YZ -0.43866  ZZ  0.01828
     Dipole Oscillator Strength                    0.0015587141
     Electric Quadrupole                           0.0000000220
     Magnetic Dipole                               0.0000000054
     Total Oscillator Strength                     0.0015587415
 
     Occ.   19 alpha a   ---  Virt.   28 alpha a    0.11666 X
     Occ.   20 alpha a   ---  Virt.   27 alpha a   -0.12592 X
     Occ.   21 alpha a   ---  Virt.   30 alpha a    0.07448 X
     Occ.   17 beta  a   ---  Virt.   21 beta  a    0.05403 X
     Occ.   19 beta  a   ---  Virt.   27 beta  a   -0.06786 X
     Occ.   20 beta  a   ---  Virt.   28 beta  a   -0.96442 X
     Occ.   20 beta  a   ---  Virt.   30 beta  a   -0.05546 X
     Occ.   20 beta  a   ---  Virt.   32 beta  a   -0.07426 X
     Occ.   20 beta  a   ---  Virt.   43 beta  a   -0.08053 X
 
              Target root =      1
          Target symmetry = none
      Ground state energy =   -231.646324867355
        Excitation energy =      0.106293819204
     Excited state energy =   -231.540031048152
 
  stored tddft:energy   -231.540031048152     

 Task  times  cpu:     3928.5s     wall:     4020.6s
 
 
                                NWChem Input Module
                                -------------------
 
 
 Summary of allocated global arrays
-----------------------------------
  No active global arrays



                         GA Statistics for process    0
                         ------------------------------

       create   destroy   get      put      acc     scatter   gather  read&inc
calls: 9571     9571     8.87e+06 4.05e+06 1.58e+06 5670        0      305     
number of processes/call 1.36e+00 1.75e+00 1.89e+00 0.00e+00 0.00e+00
bytes total:             7.93e+10 1.10e+10 8.86e+10 6.26e+04 0.00e+00 2.44e+03
bytes remote:            5.79e+10 1.10e+09 8.46e+10 0.00e+00 0.00e+00 0.00e+00
Max memory consumed for GA by this process: 205086464 bytes
 
MA_summarize_allocated_blocks: starting scan ...
MA_summarize_allocated_blocks: scan completed: 0 heap blocks, 0 stack blocks
MA usage statistics:

	allocation statistics:
					      heap	     stack
					      ----	     -----
	current number of blocks	         0	         0
	maximum number of blocks	        20	        52
	current total bytes		         0	         0
	maximum total bytes		   1165984	  68276424
	maximum total K-bytes		      1166	     68277
	maximum total M-bytes		         2	        69
 
 
                                     CITATION
                                     --------
                Please cite the following reference when publishing
                           results obtained with NWChem:
 
                 M. Valiev, E.J. Bylaska, N. Govind, K. Kowalski,
              T.P. Straatsma, H.J.J. van Dam, D. Wang, J. Nieplocha,
                        E. Apra, T.L. Windus, W.A. de Jong
                 "NWChem: a comprehensive and scalable open-source
                  solution for large scale molecular simulations"
                      Comput. Phys. Commun. 181, 1477 (2010)
                           doi:10.1016/j.cpc.2010.04.018
 
                                      AUTHORS
                                      -------
          E. Apra, E. J. Bylaska, W. A. de Jong, N. Govind, K. Kowalski,
       T. P. Straatsma, M. Valiev, H. J. J. van Dam, D. Wang, T. L. Windus,
        J. Hammond, J. Autschbach, K. Bhaskaran-Nair, J. Brabec, K. Lopata,
    S. A. Fischer, S. Krishnamoorthy, M. Jacquelin, W. Ma, M. Klemm, O. Villa,
      Y. Chen, V. Anisimov, F. Aquino, S. Hirata, M. T. Hackler, V. Konjkov,
            D. Mejia-Rodriguez, T. Risthaus, M. Malagoli, A. Marenich,
   A. Otero-de-la-Roza, J. Mullin, P. Nichols, R. Peverati, J. Pittner, Y. Zhao,
        P.-D. Fan, A. Fonari, M. J. Williamson, R. J. Harrison, J. R. Rehr,
      M. Dupuis, D. Silverstein, D. M. A. Smith, J. Nieplocha, V. Tipparaju,
    M. Krishnan, B. E. Van Kuiken, A. Vazquez-Mayagoitia, L. Jensen, M. Swart,
      Q. Wu, T. Van Voorhis, A. A. Auer, M. Nooijen, L. D. Crosby, E. Brown,
      G. Cisneros, G. I. Fann, H. Fruchtl, J. Garza, K. Hirao, R. A. Kendall,
      J. A. Nichols, K. Tsemekhman, K. Wolinski, J. Anchell, D. E. Bernholdt,
      P. Borowski, T. Clark, D. Clerc, H. Dachsel, M. J. O. Deegan, K. Dyall,
    D. Elwood, E. Glendening, M. Gutowski, A. C. Hess, J. Jaffe, B. G. Johnson,
     J. Ju, R. Kobayashi, R. Kutteh, Z. Lin, R. Littlefield, X. Long, B. Meng,
      T. Nakajima, S. Niu, L. Pollack, M. Rosing, K. Glaesemann, G. Sandrone,
      M. Stave, H. Taylor, G. Thomas, J. H. van Lenthe, A. T. Wong, Z. Zhang.

 Total times  cpu:     3928.5s     wall:     4020.8s
