 argument  1 = /storage/home/j/jbb5516/normalModes/mode1049.38-m.nw
 


============================== echo of input deck ==============================
echo
start

title "None"

geometry
C    -0.08743519    1.38771639    0.00000005
C    -1.26644881    0.69113155   -0.00000002
C    -1.16775521   -0.70460844   -0.00000002
C     0.08292661   -1.31615669    0.00000004
C     1.24695907   -0.55246573   -0.00000001
C     1.16968594    0.84462387    0.00000005
H    -2.22994390    1.18290979   -0.00000010
H    -2.06895104   -1.30435999   -0.00000009
H     0.15093614   -2.39556053    0.00000000
H     2.21630629   -1.03435983   -0.00000013
H     2.06383636    1.45344545   -0.00000010
symmetry c1
end

basis spherical
 * library "aug-cc-pvtz"
end

dft
 direct
 mult 2
 iterations 500
 xc b3lyp
end

tddft
 nroots 40
 notriplet
 algorithm 1
end
task tddft energy
================================================================================


                                         
                                         
 
 
              Northwest Computational Chemistry Package (NWChem) 6.8
              ------------------------------------------------------
 
 
                    Environmental Molecular Sciences Laboratory
                       Pacific Northwest National Laboratory
                                Richland, WA 99352
 
                              Copyright (c) 1994-2017
                       Pacific Northwest National Laboratory
                            Battelle Memorial Institute
 
             NWChem is an open-source computational chemistry package
                        distributed under the terms of the
                      Educational Community License (ECL) 2.0
             A copy of the license is included with this distribution
                              in the LICENSE.TXT file
 
                                  ACKNOWLEDGMENT
                                  --------------

            This software and its documentation were developed at the
            EMSL at Pacific Northwest National Laboratory, a multiprogram
            national laboratory, operated for the U.S. Department of Energy
            by Battelle under Contract Number DE-AC05-76RL01830. Support
            for this work was provided by the Department of Energy Office
            of Biological and Environmental Research, Office of Basic
            Energy Sciences, and the Office of Advanced Scientific Computing.


           Job information
           ---------------

    hostname        = comp-sc-0369.acib.production.int.aci.ics.psu.edu
    program         = /gpfs/group/lxj18/default/jeffprograms/nwchem-6.8.1/bin/LINUX64/nwchem
    date            = Sun Sep 20 13:54:44 2020

    compiled        = Wed_Oct_03_14:08:39_2018
    source          = /gpfs/group/lxj18/default/jeffprograms/nwchem-6.8.1
    nwchem branch   = 6.8.1
    nwchem revision = v6.8-143-gdb0d964
    ga revision     = 5.6.5
    use scalapack   = F
    input           = /storage/home/j/jbb5516/normalModes/mode1049.38-m.nw
    prefix          = mode1049.38-m.
    data base       = ./mode1049.38-m.db
    status          = startup
    nproc           =       20
    time left       =     -1s



           Memory information
           ------------------

    heap     =   13107196 doubles =    100.0 Mbytes
    stack    =   13107201 doubles =    100.0 Mbytes
    global   =   26214400 doubles =    200.0 Mbytes (distinct from heap & stack)
    total    =   52428797 doubles =    400.0 Mbytes
    verify   = yes
    hardfail = no 


           Directory information
           ---------------------
 
  0 permanent = .
  0 scratch   = .
 
 
 
 
                                NWChem Input Module
                                -------------------
 
 
                                       None
                                       ----

 Scaling coordinates for geometry "geometry" by  1.889725989
 (inverse scale =  0.529177249)

 Turning off AUTOSYM since
 SYMMETRY directive was detected!
 

          ------
          auto-z
          ------
 
 
                             Geometry "geometry" -> ""
                             -------------------------
 
 Output coordinates in angstroms (scale by  1.889725989 to convert to a.u.)
 
  No.       Tag          Charge          X              Y              Z
 ---- ---------------- ---------- -------------- -------------- --------------
    1 C                    6.0000    -0.08742978     1.38763052     0.00000005
    2 C                    6.0000    -1.26644340     0.69104568    -0.00000002
    3 C                    6.0000    -1.16774980    -0.70469431    -0.00000002
    4 C                    6.0000     0.08293202    -1.31624256     0.00000004
    5 C                    6.0000     1.24696448    -0.55255160    -0.00000001
    6 C                    6.0000     1.16969135     0.84453800     0.00000005
    7 H                    1.0000    -2.22993849     1.18282392    -0.00000010
    8 H                    1.0000    -2.06894563    -1.30444586    -0.00000009
    9 H                    1.0000     0.15094155    -2.39564640    -0.00000000
   10 H                    1.0000     2.21631170    -1.03444570    -0.00000013
   11 H                    1.0000     2.06384177     1.45335958    -0.00000010
 
      Atomic Mass 
      ----------- 
 
      C                 12.000000
      H                  1.007825
 

 Effective nuclear repulsion energy (a.u.)     195.0925837787

            Nuclear Dipole moment (a.u.) 
            ----------------------------
        X                 Y               Z
 ---------------- ---------------- ----------------
     0.0000000000    -0.0000000000     0.0000000000
 


                                Z-matrix (autoz)
                                -------- 

 Units are Angstrom for bonds and degrees for angles
 
      Type          Name      I     J     K     L     M      Value
      ----------- --------  ----- ----- ----- ----- ----- ----------
    1 Stretch                  1     2                       1.36942
    2 Stretch                  1     6                       1.36942
    3 Stretch                  2     3                       1.39922
    4 Stretch                  2     7                       1.08174
    5 Stretch                  3     4                       1.39219
    6 Stretch                  3     8                       1.08252
    7 Stretch                  4     5                       1.39219
    8 Stretch                  4     9                       1.08154
    9 Stretch                  5     6                       1.39922
   10 Stretch                  5    10                       1.08252
   11 Stretch                  6    11                       1.08174
   12 Bend                     1     2     3               116.53076
   13 Bend                     1     2     7               122.38430
   14 Bend                     1     6     5               116.53077
   15 Bend                     1     6    11               122.38432
   16 Bend                     2     1     6               126.05959
   17 Bend                     2     3     4               120.10202
   18 Bend                     2     3     8               119.59933
   19 Bend                     3     2     7               121.08494
   20 Bend                     3     4     5               120.67484
   21 Bend                     3     4     9               119.66258
   22 Bend                     4     3     8               120.29865
   23 Bend                     4     5     6               120.10201
   24 Bend                     4     5    10               120.29871
   25 Bend                     5     4     9               119.66258
   26 Bend                     5     6    11               121.08490
   27 Bend                     6     5    10               119.59928
   28 Torsion                  1     2     3     4           0.00000
   29 Torsion                  1     2     3     8        -180.00000
   30 Torsion                  1     6     5     4           0.00000
   31 Torsion                  1     6     5    10         180.00000
   32 Torsion                  2     1     6     5           0.00000
   33 Torsion                  2     1     6    11         180.00000
   34 Torsion                  2     3     4     5           0.00000
   35 Torsion                  2     3     4     9        -180.00000
   36 Torsion                  3     2     1     6           0.00000
   37 Torsion                  3     4     5     6           0.00000
   38 Torsion                  3     4     5    10        -180.00000
   39 Torsion                  4     3     2     7         180.00000
   40 Torsion                  4     5     6    11        -180.00000
   41 Torsion                  5     4     3     8         180.00000
   42 Torsion                  6     1     2     7        -180.00000
   43 Torsion                  6     5     4     9        -180.00000
   44 Torsion                  7     2     3     8           0.00000
   45 Torsion                  8     3     4     9           0.00000
   46 Torsion                  9     4     5    10           0.00000
   47 Torsion                 10     5     6    11           0.00000
 
 
            XYZ format geometry
            -------------------
    11
 geometry
 C                    -0.08742978     1.38763052     0.00000005
 C                    -1.26644340     0.69104568    -0.00000002
 C                    -1.16774980    -0.70469431    -0.00000002
 C                     0.08293202    -1.31624256     0.00000004
 C                     1.24696448    -0.55255160    -0.00000001
 C                     1.16969135     0.84453800     0.00000005
 H                    -2.22993849     1.18282392    -0.00000010
 H                    -2.06894563    -1.30444586    -0.00000009
 H                     0.15094155    -2.39564640    -0.00000000
 H                     2.21631170    -1.03444570    -0.00000013
 H                     2.06384177     1.45335958    -0.00000010
 
 ==============================================================================
                                internuclear distances
 ------------------------------------------------------------------------------
       center one      |      center two      | atomic units |  angstroms
 ------------------------------------------------------------------------------
    2 C                |   1 C                |     2.58782  |     1.36942
    3 C                |   2 C                |     2.64415  |     1.39922
    4 C                |   3 C                |     2.63086  |     1.39219
    5 C                |   4 C                |     2.63086  |     1.39219
    6 C                |   1 C                |     2.58782  |     1.36942
    6 C                |   5 C                |     2.64415  |     1.39922
    7 H                |   2 C                |     2.04420  |     1.08174
    8 H                |   3 C                |     2.04567  |     1.08252
    9 H                |   4 C                |     2.04382  |     1.08154
   10 H                |   5 C                |     2.04567  |     1.08252
   11 H                |   6 C                |     2.04420  |     1.08174
 ------------------------------------------------------------------------------
                         number of included internuclear distances:         11
 ==============================================================================



 ==============================================================================
                                 internuclear angles
 ------------------------------------------------------------------------------
        center 1       |       center 2       |       center 3       |  degrees
 ------------------------------------------------------------------------------
    2 C                |   1 C                |   6 C                |   126.06
    1 C                |   2 C                |   3 C                |   116.53
    1 C                |   2 C                |   7 H                |   122.38
    3 C                |   2 C                |   7 H                |   121.08
    2 C                |   3 C                |   4 C                |   120.10
    2 C                |   3 C                |   8 H                |   119.60
    4 C                |   3 C                |   8 H                |   120.30
    3 C                |   4 C                |   5 C                |   120.67
    3 C                |   4 C                |   9 H                |   119.66
    5 C                |   4 C                |   9 H                |   119.66
    4 C                |   5 C                |   6 C                |   120.10
    4 C                |   5 C                |  10 H                |   120.30
    6 C                |   5 C                |  10 H                |   119.60
    1 C                |   6 C                |   5 C                |   116.53
    1 C                |   6 C                |  11 H                |   122.38
    5 C                |   6 C                |  11 H                |   121.08
 ------------------------------------------------------------------------------
                            number of included internuclear angles:         16
 ==============================================================================





 Summary of "ao basis" -> "" (spherical)
 ------------------------------------------------------------------------------
       Tag                 Description            Shells   Functions and Types
 ---------------- ------------------------------  ------  ---------------------
 *                        aug-cc-pvtz                 on all atoms 


 
                                 NWChem DFT Module
                                 -----------------
 
 
                                       None
 
 
                      Basis "ao basis" -> "ao basis" (spherical)
                      -----
  C (Carbon)
  ----------
            Exponent  Coefficients 
       -------------- ---------------------------------------------------------
  1 S  8.23600000E+03  0.000531
  1 S  1.23500000E+03  0.004108
  1 S  2.80800000E+02  0.021087
  1 S  7.92700000E+01  0.081853
  1 S  2.55900000E+01  0.234817
  1 S  8.99700000E+00  0.434401
  1 S  3.31900000E+00  0.346129
  1 S  3.64300000E-01 -0.008983
 
  2 S  8.23600000E+03 -0.000113
  2 S  1.23500000E+03 -0.000878
  2 S  2.80800000E+02 -0.004540
  2 S  7.92700000E+01 -0.018133
  2 S  2.55900000E+01 -0.055760
  2 S  8.99700000E+00 -0.126895
  2 S  3.31900000E+00 -0.170352
  2 S  3.64300000E-01  0.598684
 
  3 S  9.05900000E-01  1.000000
 
  4 S  1.28500000E-01  1.000000
 
  5 S  4.40200000E-02  1.000000
 
  6 P  1.87100000E+01  0.014031
  6 P  4.13300000E+00  0.086866
  6 P  1.20000000E+00  0.290216
 
  7 P  3.82700000E-01  1.000000
 
  8 P  1.20900000E-01  1.000000
 
  9 P  3.56900000E-02  1.000000
 
 10 D  1.09700000E+00  1.000000
 
 11 D  3.18000000E-01  1.000000
 
 12 D  1.00000000E-01  1.000000
 
 13 F  7.61000000E-01  1.000000
 
 14 F  2.68000000E-01  1.000000
 
  H (Hydrogen)
  ------------
            Exponent  Coefficients 
       -------------- ---------------------------------------------------------
  1 S  3.38700000E+01  0.006068
  1 S  5.09500000E+00  0.045308
  1 S  1.15900000E+00  0.202822
 
  2 S  3.25800000E-01  1.000000
 
  3 S  1.02700000E-01  1.000000
 
  4 S  2.52600000E-02  1.000000
 
  5 P  1.40700000E+00  1.000000
 
  6 P  3.88000000E-01  1.000000
 
  7 P  1.02000000E-01  1.000000
 
  8 D  1.05700000E+00  1.000000
 
  9 D  2.47000000E-01  1.000000
 


 Summary of "ao basis" -> "ao basis" (spherical)
 ------------------------------------------------------------------------------
       Tag                 Description            Shells   Functions and Types
 ---------------- ------------------------------  ------  ---------------------
 C                        aug-cc-pvtz               14       46   5s4p3d2f
 H                        aug-cc-pvtz                9       23   4s3p2d




 Summary of "ao basis" -> "ao basis" (spherical)
 ------------------------------------------------------------------------------
       Tag                 Description            Shells   Functions and Types
 ---------------- ------------------------------  ------  ---------------------
 C                        aug-cc-pvtz               14       46   5s4p3d2f
 H                        aug-cc-pvtz                9       23   4s3p2d


  Caching 1-el integrals 
 
            General Information
            -------------------
          SCF calculation type: DFT
          Wavefunction type:  spin polarized.
          No. of atoms     :    11
          No. of electrons :    41
           Alpha electrons :    21
            Beta electrons :    20
          Charge           :     0
          Spin multiplicity:     2
          Use of symmetry is: off; symmetry adaption is: off
          Maximum number of iterations: 500
          This is a Direct SCF calculation.
          AO basis - number of functions:   391
                     number of shells:   129
          Convergence on energy requested:  1.00D-06
          Convergence on density requested:  1.00D-05
          Convergence on gradient requested:  5.00D-04
 
              XC Information
              --------------
                         B3LYP Method XC Potential
                     Hartree-Fock (Exact) Exchange  0.200          
                        Slater Exchange Functional  0.800 local    
                    Becke 1988 Exchange Functional  0.720 non-local
              Lee-Yang-Parr Correlation Functional  0.810          
                  VWN I RPA Correlation Functional  0.190 local    
 
             Grid Information
             ----------------
          Grid used for XC integration:  medium    
          Radial quadrature: Mura-Knowles        
          Angular quadrature: Lebedev. 
          Tag              B.-S. Rad. Rad. Pts. Rad. Cut. Ang. Pts.
          ---              ---------- --------- --------- ---------
          C                   0.70       49          15.0       434
          H                   0.35       45          17.0       434
          Grid pruning is: on 
          Number of quadrature shells:   519
          Spatial weights used:  Erf1
 
          Convergence Information
          -----------------------
          Convergence aids based upon iterative change in 
          total energy or number of iterations. 
          Levelshifting, if invoked, occurs when the 
          HOMO/LUMO gap drops below (HL_TOL):  1.00D-02
          DIIS, if invoked, will attempt to extrapolate 
          using up to (NFOCK): 10 stored Fock matrices.

                    Damping( 0%)  Levelshifting(0.5)       DIIS
                  --------------- ------------------- ---------------
          dE  on:    start            ASAP                start   
          dE off:    2 iters        500 iters           500 iters 

 
      Screening Tolerance Information
      -------------------------------
          Density screening/tol_rho:  1.00D-10
          AO Gaussian exp screening on grid/accAOfunc:  14
          CD Gaussian exp screening on grid/accCDfunc:  20
          XC Gaussian exp screening on grid/accXCfunc:  20
          Schwarz screening/accCoul:  1.00D-08

 
 WARNING : Found     7 linear dependencies 
 S eigenvalue threshold:     1.00000E-05
 Smallest S eigenvalue :     1.46432E-06
 Largest  S eigenvalue :     7.75928E-06
 

 !! The overlap matrix has   7 vectors deemed linearly dependent with
    eigenvalues:
 1.46D-06 2.24D-06 2.83D-06 3.54D-06 5.26D-06 5.95D-06 7.76D-06
 
 
      Superposition of Atomic Density Guess
      -------------------------------------
 
 Sum of atomic energies:        -228.52307259
 
      Non-variational initial energy
      ------------------------------

 Total energy =    -232.670124
 1-e energy   =    -691.382996
 2-e energy   =     263.620289
 HOMO         =      -0.183416
 LUMO         =      -0.022272
 
   Time after variat. SCF:      8.9
   Time prior to 1st pass:      8.9

 Grid_pts file          = ./mode1049.38-m.gridpts.00
 Record size in doubles =  12289        No. of grid_pts per rec  =   3070
 Max. records in memory =      6        Max. recs in file   = 222841202

 Grid integrated density:      40.999766167776
 Requested integration accuracy:   0.10E-05

           Memory utilization after 1st SCF pass: 
           Heap Space remaining (MW):       12.96            12961276
          Stack Space remaining (MW):       13.10            13103684

   convergence    iter        energy       DeltaE   RMS-Dens  Diis-err    time
 ---------------- ----- ----------------- --------- --------- ---------  ------
 d= 0,ls=0.0,diis     1   -231.5816193338 -4.27D+02  6.23D-02  2.09D-01    18.7
                                                     7.03D-02  1.96D-01
 d= 0,ls=0.0,diis     2   -231.6398098488 -5.82D-02  6.13D-02  1.22D-02    28.5
                                                     6.91D-02  1.25D-02
 d= 0,ls=0.0,diis     3   -231.6445941445 -4.78D-03  1.28D-03  3.45D-03    38.5
                                                     1.39D-03  3.53D-03
 d= 0,ls=0.0,diis     4   -231.6457631450 -1.17D-03  2.07D-04  1.14D-03    48.5
                                                     2.10D-04  1.06D-03
 d= 0,ls=0.0,diis     5   -231.6462840566 -5.21D-04  3.39D-05  4.01D-05    58.4
                                                     3.21D-05  4.87D-05
  Resetting Diis
 d= 0,ls=0.0,diis     6   -231.6463118316 -2.78D-05  1.16D-05  7.17D-06    68.4
                                                     1.03D-05  4.39D-06
 d= 0,ls=0.0,diis     7   -231.6463177553 -5.92D-06  5.38D-06  1.35D-06    78.4
                                                     6.02D-06  2.31D-06
 d= 0,ls=0.0,diis     8   -231.6463197378 -1.98D-06  2.50D-06  3.32D-06    88.4
                                                     2.01D-06  2.54D-06
 d= 0,ls=0.0,diis     9   -231.6463216543 -1.92D-06  2.95D-06  3.72D-07    98.4
                                                     2.78D-06  3.82D-07
 d= 0,ls=0.0,diis    10   -231.6463226853 -1.03D-06  2.67D-06  2.59D-07   108.3
                                                     2.82D-06  3.38D-07
 d= 0,ls=0.0,diis    11   -231.6463232596 -5.74D-07  5.39D-07  1.19D-08   118.3
                                                     4.89D-07  1.09D-08


         Total DFT energy =     -231.646323259623
      One electron energy =     -696.617657778755
           Coulomb energy =      304.288824429340
    Exchange-Corr. energy =      -34.410073688894
 Nuclear repulsion energy =      195.092583778686

 Numeric. integr. density =       40.999984825885

     Total iterative time =    109.5s


 
                    DFT Final Alpha Molecular Orbital Analysis
                    ------------------------------------------
 
 Vector    1  Occ=1.000000D+00  E=-1.020490D+01
              MO Center= -8.7D-02,  1.4D+00,  4.8D-08, r^2= 3.0D-02
   Bfn.  Coefficient  Atom+Function         Bfn.  Coefficient  Atom+Function  
  ----- ------------  ---------------      ----- ------------  ---------------
     1      0.984174   1 C  s                 3      0.058895   1 C  s         
    50     -0.038633   2 C  s               234     -0.038633   6 C  s         
   279      0.038247   7 H  s               371      0.038245  11 H  s         
   143      0.037955   4 C  s                51     -0.030758   2 C  s         
   235     -0.030757   6 C  s                47      0.025690   2 C  s         
 
 Vector    2  Occ=1.000000D+00  E=-1.019187D+01
              MO Center= -6.6D-01, -6.4D-01, -2.3D-08, r^2= 1.1D+00
   Bfn.  Coefficient  Atom+Function         Bfn.  Coefficient  Atom+Function  
  ----- ------------  ---------------      ----- ------------  ---------------
    93      0.863019   3 C  s               185      0.445929   5 C  s         
    47      0.147974   2 C  s               142     -0.092865   4 C  s         
   231      0.067384   6 C  s               139      0.057438   4 C  s         
    95      0.051554   3 C  s               325      0.049628   9 H  s         
   302      0.047441   8 H  s               234      0.034403   6 C  s         
 
 Vector    3  Occ=1.000000D+00  E=-1.019184D+01
              MO Center=  7.4D-01, -5.4D-01, -1.5D-08, r^2= 1.1D+00
   Bfn.  Coefficient  Atom+Function         Bfn.  Coefficient  Atom+Function  
  ----- ------------  ---------------      ----- ------------  ---------------
   185      0.861569   5 C  s                93     -0.443157   3 C  s         
   231      0.160751   6 C  s                47     -0.092010   2 C  s         
    50      0.063434   2 C  s               348      0.057679  10 H  s         
   234     -0.053380   6 C  s                51      0.052698   2 C  s         
   187      0.051158   5 C  s               279     -0.051035   7 H  s         
 
 Vector    4  Occ=1.000000D+00  E=-1.019014D+01
              MO Center= -1.2D+00,  6.5D-01, -2.2D-08, r^2= 2.1D-01
   Bfn.  Coefficient  Atom+Function         Bfn.  Coefficient  Atom+Function  
  ----- ------------  ---------------      ----- ------------  ---------------
    47      0.960356   2 C  s                93     -0.167494   3 C  s         
   231      0.142625   6 C  s               279      0.059751   7 H  s         
    49      0.056131   2 C  s               189      0.035321   5 C  s         
   143      0.034850   4 C  s                 4     -0.034171   1 C  s         
   142     -0.032332   4 C  s                51     -0.031084   2 C  s         
 
 Vector    5  Occ=1.000000D+00  E=-1.019013D+01
              MO Center=  1.1D+00,  8.0D-01,  4.5D-08, r^2= 2.1D-01
   Bfn.  Coefficient  Atom+Function         Bfn.  Coefficient  Atom+Function  
  ----- ------------  ---------------      ----- ------------  ---------------
   231      0.959576   6 C  s               185     -0.170514   5 C  s         
    47     -0.137340   2 C  s               371      0.058624  11 H  s         
   233      0.055850   6 C  s                97      0.044701   3 C  s         
    96      0.039015   3 C  s               189     -0.037976   5 C  s         
    12     -0.035898   1 C  px               93      0.034644   3 C  s         
 
 Vector    6  Occ=1.000000D+00  E=-1.018449D+01
              MO Center=  8.3D-02, -1.3D+00,  3.9D-08, r^2= 3.5D-02
   Bfn.  Coefficient  Atom+Function         Bfn.  Coefficient  Atom+Function  
  ----- ------------  ---------------      ----- ------------  ---------------
   139      0.984232   4 C  s               141      0.057773   4 C  s         
    96     -0.046078   3 C  s               188     -0.046080   5 C  s         
   325      0.045994   9 H  s               143     -0.043618   4 C  s         
     4      0.040265   1 C  s                93     -0.040194   3 C  s         
   185     -0.040280   5 C  s               151      0.036240   4 C  py        
 
 Vector    7  Occ=1.000000D+00  E=-8.725797D-01
              MO Center= -6.5D-03,  1.0D-01,  5.0D-09, r^2= 2.0D+00
   Bfn.  Coefficient  Atom+Function         Bfn.  Coefficient  Atom+Function  
  ----- ------------  ---------------      ----- ------------  ---------------
     2      0.214634   1 C  s                48      0.202961   2 C  s         
   232      0.202945   6 C  s                94      0.195288   3 C  s         
   186      0.195271   5 C  s               140      0.187692   4 C  s         
    50      0.089707   2 C  s               234      0.089697   6 C  s         
    96      0.088564   3 C  s               188      0.088559   5 C  s         
 
 Vector    8  Occ=1.000000D+00  E=-7.627706D-01
              MO Center= -6.3D-03,  1.0D-01,  2.2D-09, r^2= 2.8D+00
   Bfn.  Coefficient  Atom+Function         Bfn.  Coefficient  Atom+Function  
  ----- ------------  ---------------      ----- ------------  ---------------
    48      0.250991   2 C  s               232     -0.251000   6 C  s         
    94      0.243712   3 C  s               186     -0.243720   5 C  s         
    50      0.146053   2 C  s               234     -0.146063   6 C  s         
   279     -0.129259   7 H  s               371      0.129264  11 H  s         
   150     -0.115232   4 C  px               97      0.111207   3 C  s         
 
 Vector    9  Occ=1.000000D+00  E=-7.537713D-01
              MO Center=  9.4D-03, -1.5D-01, -2.7D-08, r^2= 2.6D+00
   Bfn.  Coefficient  Atom+Function         Bfn.  Coefficient  Atom+Function  
  ----- ------------  ---------------      ----- ------------  ---------------
   140     -0.301046   4 C  s                 2      0.278462   1 C  s         
    94     -0.149297   3 C  s               186     -0.149289   5 C  s         
    48      0.147628   2 C  s               142     -0.147720   4 C  s         
   232      0.147619   6 C  s                96     -0.105404   3 C  s         
   188     -0.105401   5 C  s                 4      0.102809   1 C  s         
 
 Vector   10  Occ=1.000000D+00  E=-6.187855D-01
              MO Center= -2.6D-03,  4.2D-02, -1.1D-08, r^2= 3.6D+00
   Bfn.  Coefficient  Atom+Function         Bfn.  Coefficient  Atom+Function  
  ----- ------------  ---------------      ----- ------------  ---------------
    94     -0.208694   3 C  s               186      0.208689   5 C  s         
    48      0.199317   2 C  s               232     -0.199323   6 C  s         
    50      0.183032   2 C  s               234     -0.183041   6 C  s         
    96     -0.147063   3 C  s               188      0.147055   5 C  s         
     6     -0.127640   1 C  px              144      0.116674   4 C  px        
 
 Vector   11  Occ=1.000000D+00  E=-6.035873D-01
              MO Center=  5.7D-03, -9.0D-02, -3.2D-08, r^2= 3.5D+00
   Bfn.  Coefficient  Atom+Function         Bfn.  Coefficient  Atom+Function  
  ----- ------------  ---------------      ----- ------------  ---------------
   142      0.259572   4 C  s                 2      0.238499   1 C  s         
   140      0.219181   4 C  s                 4      0.197292   1 C  s         
    94     -0.138431   3 C  s               186     -0.138450   5 C  s         
    50     -0.122549   2 C  s               234     -0.122538   6 C  s         
    96     -0.119458   3 C  s               188     -0.119472   5 C  s         
 
 Vector   12  Occ=1.000000D+00  E=-5.277668D-01
              MO Center=  9.3D-03, -1.5D-01, -1.1D-08, r^2= 4.1D+00
   Bfn.  Coefficient  Atom+Function         Bfn.  Coefficient  Atom+Function  
  ----- ------------  ---------------      ----- ------------  ---------------
   148      0.159104   4 C  py              145      0.138651   4 C  py        
   324     -0.126701   9 H  s                55      0.105388   2 C  px        
   240     -0.104973   6 C  py              323     -0.100253   9 H  s         
   237     -0.096250   6 C  py              193     -0.094506   5 C  px        
   278     -0.094488   7 H  s               370     -0.094482  11 H  s         
 
 Vector   13  Occ=1.000000D+00  E=-4.645629D-01
              MO Center= -6.4D-03,  1.0D-01,  1.0D-10, r^2= 2.7D+00
   Bfn.  Coefficient  Atom+Function         Bfn.  Coefficient  Atom+Function  
  ----- ------------  ---------------      ----- ------------  ---------------
     9      0.188690   1 C  px                6      0.175117   1 C  px        
   147      0.172709   4 C  px              144      0.159321   4 C  px        
   239     -0.136708   6 C  px              194     -0.135169   5 C  py        
    56     -0.131314   2 C  py               55     -0.121242   2 C  px        
   191     -0.121799   5 C  py              102      0.121156   3 C  py        
 
 Vector   14  Occ=1.000000D+00  E=-4.631078D-01
              MO Center=  1.0D-02, -1.6D-01, -4.3D-08, r^2= 4.8D+00
   Bfn.  Coefficient  Atom+Function         Bfn.  Coefficient  Atom+Function  
  ----- ------------  ---------------      ----- ------------  ---------------
     2      0.176742   1 C  s               301      0.136658   8 H  s         
   347      0.136634  10 H  s               140     -0.129091   4 C  s         
   193      0.127725   5 C  px              196      0.120013   5 C  px        
   101     -0.118751   3 C  px               96      0.117990   3 C  s         
   188      0.118009   5 C  s               190      0.118513   5 C  px        
 
 Vector   15  Occ=1.000000D+00  E=-4.399667D-01
              MO Center= -1.3D-02,  2.1D-01, -2.6D-08, r^2= 4.0D+00
   Bfn.  Coefficient  Atom+Function         Bfn.  Coefficient  Atom+Function  
  ----- ------------  ---------------      ----- ------------  ---------------
   240      0.143801   6 C  py              102      0.139049   3 C  py        
   237      0.132783   6 C  py              278     -0.131298   7 H  s         
   370      0.131293  11 H  s                99      0.130025   3 C  py        
    55      0.129331   2 C  px               56     -0.128590   2 C  py        
   194     -0.126725   5 C  py               53     -0.119552   2 C  py        
 
 Vector   16  Occ=1.000000D+00  E=-3.990663D-01
              MO Center=  4.9D-02, -7.8D-01, -1.0D-08, r^2= 3.3D+00
   Bfn.  Coefficient  Atom+Function         Bfn.  Coefficient  Atom+Function  
  ----- ------------  ---------------      ----- ------------  ---------------
   148      0.233557   4 C  py              145      0.209297   4 C  py        
   324     -0.198627   9 H  s               151      0.172556   4 C  py        
   323     -0.154061   9 H  s                10      0.138629   1 C  py        
    13      0.120972   1 C  py              240      0.115131   6 C  py        
    56      0.109391   2 C  py                7      0.107946   1 C  py        
 
 Vector   17  Occ=1.000000D+00  E=-3.837833D-01
              MO Center= -7.8D-03,  1.2D-01, -5.8D-08, r^2= 2.7D+00
   Bfn.  Coefficient  Atom+Function         Bfn.  Coefficient  Atom+Function  
  ----- ------------  ---------------      ----- ------------  ---------------
    11      0.173762   1 C  pz               57      0.156565   2 C  pz        
   241      0.156553   6 C  pz              103      0.152050   3 C  pz        
   195      0.152039   5 C  pz              149      0.145589   4 C  pz        
     8      0.137089   1 C  pz               54      0.125920   2 C  pz        
   238      0.125911   6 C  pz              100      0.121586   3 C  pz        
 
 Vector   18  Occ=1.000000D+00  E=-3.660142D-01
              MO Center=  8.8D-03, -1.4D-01, -2.8D-08, r^2= 4.1D+00
   Bfn.  Coefficient  Atom+Function         Bfn.  Coefficient  Atom+Function  
  ----- ------------  ---------------      ----- ------------  ---------------
   147     -0.169274   4 C  px              101      0.164924   3 C  px        
   193      0.164809   5 C  px              144     -0.159708   4 C  px        
     9      0.149483   1 C  px               98      0.149188   3 C  px        
   190      0.148858   5 C  px                6      0.141839   1 C  px        
   196      0.135372   5 C  px              104      0.133298   3 C  px        
 
 Vector   19  Occ=1.000000D+00  E=-2.685385D-01
              MO Center=  1.1D-03, -1.8D-02,  7.6D-08, r^2= 3.0D+00
   Bfn.  Coefficient  Atom+Function         Bfn.  Coefficient  Atom+Function  
  ----- ------------  ---------------      ----- ------------  ---------------
    11      0.245051   1 C  pz              149     -0.238753   4 C  pz        
     8      0.192730   1 C  pz              146     -0.190857   4 C  pz        
    14      0.176160   1 C  pz              152     -0.171759   4 C  pz        
   103     -0.126800   3 C  pz              195     -0.126682   5 C  pz        
    57      0.114574   2 C  pz              241      0.114681   6 C  pz        
 
 Vector   20  Occ=1.000000D+00  E=-2.678814D-01
              MO Center= -3.8D-03,  6.1D-02,  2.8D-07, r^2= 3.1D+00
   Bfn.  Coefficient  Atom+Function         Bfn.  Coefficient  Atom+Function  
  ----- ------------  ---------------      ----- ------------  ---------------
   103      0.207481   3 C  pz              195     -0.207555   5 C  pz        
    57      0.203814   2 C  pz              241     -0.203757   6 C  pz        
   100      0.165304   3 C  pz              192     -0.165363   5 C  pz        
    54      0.163217   2 C  pz              238     -0.163172   6 C  pz        
    60      0.150506   2 C  pz              106      0.149995   3 C  pz        
 
 Vector   21  Occ=1.000000D+00  E=-2.483424D-01
              MO Center= -8.2D-02,  1.3D+00,  8.5D-08, r^2= 2.3D+00
   Bfn.  Coefficient  Atom+Function         Bfn.  Coefficient  Atom+Function  
  ----- ------------  ---------------      ----- ------------  ---------------
    10      0.385967   1 C  py               13      0.338155   1 C  py        
     5      0.335468   1 C  s                 7      0.299285   1 C  py        
     4      0.279542   1 C  s                 2      0.138393   1 C  s         
   243     -0.136337   6 C  py               59     -0.134259   2 C  py        
   102      0.112417   3 C  py              194      0.112419   5 C  py        
 
 Vector   22  Occ=0.000000D+00  E=-2.596134D-02
              MO Center= -4.3D-03,  6.8D-02, -1.1D-06, r^2= 4.3D+00
   Bfn.  Coefficient  Atom+Function         Bfn.  Coefficient  Atom+Function  
  ----- ------------  ---------------      ----- ------------  ---------------
   109     -0.320306   3 C  pz              201      0.320286   5 C  pz        
    63      0.314947   2 C  pz              247     -0.314934   6 C  pz        
    60      0.227002   2 C  pz              244     -0.226994   6 C  pz        
   106     -0.223757   3 C  pz              198      0.223744   5 C  pz        
    57      0.218804   2 C  pz              241     -0.218800   6 C  pz        
 
 Vector   23  Occ=0.000000D+00  E=-1.854688D-02
              MO Center=  3.4D-03, -5.3D-02, -4.1D-06, r^2= 4.3D+00
   Bfn.  Coefficient  Atom+Function         Bfn.  Coefficient  Atom+Function  
  ----- ------------  ---------------      ----- ------------  ---------------
   155      0.440576   4 C  pz               17      0.373451   1 C  pz        
   152      0.274705   4 C  pz               11      0.258523   1 C  pz        
   149      0.251130   4 C  pz               14      0.239765   1 C  pz        
   109     -0.226836   3 C  pz              201     -0.226847   5 C  pz        
     8      0.200286   1 C  pz               63     -0.197909   2 C  pz        
 
 Vector   24  Occ=0.000000D+00  E=-1.009776D-02
              MO Center=  5.9D-02, -9.5D-01, -2.4D-06, r^2= 2.0D+01
   Bfn.  Coefficient  Atom+Function         Bfn.  Coefficient  Atom+Function  
  ----- ------------  ---------------      ----- ------------  ---------------
     5      1.448249   1 C  s               279     -0.976278   7 H  s         
   371     -0.976270  11 H  s               326     -0.740813   9 H  s         
   303     -0.730489   8 H  s               349     -0.730363  10 H  s         
   302     -0.651604   8 H  s               348     -0.651626  10 H  s         
   325     -0.589382   9 H  s                51      0.559348   2 C  s         
 
 Vector   25  Occ=0.000000D+00  E= 4.387623D-03
              MO Center=  1.6D-02, -2.6D-01, -9.8D-06, r^2= 2.7D+01
   Bfn.  Coefficient  Atom+Function         Bfn.  Coefficient  Atom+Function  
  ----- ------------  ---------------      ----- ------------  ---------------
    51      2.733885   2 C  s               235     -2.733517   6 C  s         
    97      2.675567   3 C  s               189     -2.675576   5 C  s         
   303      1.999421   8 H  s               349     -1.999564  10 H  s         
    15      1.864679   1 C  px              153      1.811263   4 C  px        
   280      1.538066   7 H  s               372     -1.537890  11 H  s         
 
 Vector   26  Occ=0.000000D+00  E= 8.725839D-03
              MO Center=  4.7D-03, -7.6D-02,  5.4D-05, r^2= 2.7D+01
   Bfn.  Coefficient  Atom+Function         Bfn.  Coefficient  Atom+Function  
  ----- ------------  ---------------      ----- ------------  ---------------
   143      6.238261   4 C  s                51     -4.001941   2 C  s         
   235     -4.002021   6 C  s               326      2.933447   9 H  s         
     5      2.566357   1 C  s               280     -2.386820   7 H  s         
   372     -2.386770  11 H  s               154      1.948717   4 C  py        
   246      1.937661   6 C  py               62      1.834187   2 C  py        
 
 Vector   27  Occ=0.000000D+00  E= 2.671482D-02
              MO Center= -1.6D-02,  2.5D-01, -2.5D-05, r^2= 3.1D+01
   Bfn.  Coefficient  Atom+Function         Bfn.  Coefficient  Atom+Function  
  ----- ------------  ---------------      ----- ------------  ---------------
   280      3.935581   7 H  s               372     -3.935597  11 H  s         
    51      3.666461   2 C  s               235     -3.666771   6 C  s         
   303     -3.601040   8 H  s               349      3.600772  10 H  s         
    61      2.221206   2 C  px               97     -2.201225   3 C  s         
   189      2.201253   5 C  s               199     -2.042627   5 C  px        
 
 Vector   28  Occ=0.000000D+00  E= 3.220191D-02
              MO Center=  4.0D-02, -6.3D-01, -1.2D-04, r^2= 2.9D+01
   Bfn.  Coefficient  Atom+Function         Bfn.  Coefficient  Atom+Function  
  ----- ------------  ---------------      ----- ------------  ---------------
     5      6.356447   1 C  s               326     -4.997307   9 H  s         
   303      3.726238   8 H  s               349      3.726624  10 H  s         
    97     -2.169265   3 C  s               154     -2.179773   4 C  py        
   189     -2.168852   5 C  s               199     -1.650023   5 C  px        
   245      1.627228   6 C  px               61     -1.574101   2 C  px        
 
 Vector   29  Occ=0.000000D+00  E= 4.329624D-02
              MO Center=  1.4D-02, -2.2D-01,  9.5D-06, r^2= 1.3D+01
   Bfn.  Coefficient  Atom+Function         Bfn.  Coefficient  Atom+Function  
  ----- ------------  ---------------      ----- ------------  ---------------
   155      0.593506   4 C  pz               63      0.572495   2 C  pz        
   247      0.572453   6 C  pz               17     -0.256470   1 C  pz        
    60     -0.153812   2 C  pz              244     -0.153834   6 C  pz        
   289     -0.122640   7 H  pz              381     -0.122637  11 H  pz        
   259      0.119539   6 C  d -1             77      0.108719   2 C  d  1      
 
 Vector   30  Occ=0.000000D+00  E= 5.498121D-02
              MO Center=  9.4D-03, -1.5D-01, -3.8D-05, r^2= 1.5D+01
   Bfn.  Coefficient  Atom+Function         Bfn.  Coefficient  Atom+Function  
  ----- ------------  ---------------      ----- ------------  ---------------
     5     10.672052   1 C  s               143      5.275209   4 C  s         
    51     -4.474282   2 C  s               235     -4.474246   6 C  s         
   303     -2.784240   8 H  s               349     -2.784175  10 H  s         
   326      2.041806   9 H  s               199      2.002472   5 C  px        
    97     -1.944665   3 C  s               189     -1.944544   5 C  s         
 
 Vector   31  Occ=0.000000D+00  E= 6.337108D-02
              MO Center= -4.1D-02,  6.5D-01, -9.9D-05, r^2= 2.8D+01
   Bfn.  Coefficient  Atom+Function         Bfn.  Coefficient  Atom+Function  
  ----- ------------  ---------------      ----- ------------  ---------------
     5     24.451623   1 C  s                51     -9.889554   2 C  s         
   235     -9.889584   6 C  s               143      7.665464   4 C  s         
    97     -6.530995   3 C  s               189     -6.530925   5 C  s         
   326      5.857582   9 H  s               154      4.768131   4 C  py        
   303     -4.686597   8 H  s               349     -4.686740  10 H  s         
 
 Vector   32  Occ=0.000000D+00  E= 6.574726D-02
              MO Center=  1.6D-03, -2.5D-02,  5.4D-04, r^2= 1.8D+01
   Bfn.  Coefficient  Atom+Function         Bfn.  Coefficient  Atom+Function  
  ----- ------------  ---------------      ----- ------------  ---------------
   109      0.976327   3 C  pz              201     -0.976323   5 C  pz        
    63      0.770835   2 C  pz              247     -0.770792   6 C  pz        
   169     -0.670523   4 C  d  1             31     -0.590476   1 C  d  1      
   106      0.492644   3 C  pz              198     -0.492656   5 C  pz        
    60      0.489165   2 C  pz              244     -0.489138   6 C  pz        
 
 Vector   33  Occ=0.000000D+00  E= 6.826056D-02
              MO Center= -1.2D-02,  1.9D-01, -2.7D-04, r^2= 1.8D+01
   Bfn.  Coefficient  Atom+Function         Bfn.  Coefficient  Atom+Function  
  ----- ------------  ---------------      ----- ------------  ---------------
    63      1.023762   2 C  pz              247      1.023735   6 C  pz        
   109     -0.812567   3 C  pz              201     -0.812451   5 C  pz        
   155     -0.750315   4 C  pz               14      0.631308   1 C  pz        
   152     -0.617141   4 C  pz               17      0.459261   1 C  pz        
   213     -0.448946   5 C  d -1            261     -0.407549   6 C  d  1      
 
 Vector   34  Occ=0.000000D+00  E= 7.646045D-02
              MO Center=  9.2D-03, -1.6D-01, -1.3D-04, r^2= 3.5D+01
   Bfn.  Coefficient  Atom+Function         Bfn.  Coefficient  Atom+Function  
  ----- ------------  ---------------      ----- ------------  ---------------
    51     13.888534   2 C  s               235    -13.889211   6 C  s         
    97     12.417959   3 C  s               189    -12.418981   5 C  s         
   153      7.732713   4 C  px               15      7.669347   1 C  px        
   107      4.788469   3 C  px              303      4.698242   8 H  s         
   349     -4.697695  10 H  s               199      4.482358   5 C  px        
 
 Vector   35  Occ=0.000000D+00  E= 7.794286D-02
              MO Center=  2.1D-01, -3.3D+00,  1.3D-04, r^2= 2.1D+01
   Bfn.  Coefficient  Atom+Function         Bfn.  Coefficient  Atom+Function  
  ----- ------------  ---------------      ----- ------------  ---------------
   143     18.310540   4 C  s                51    -13.454383   2 C  s         
   235    -13.450726   6 C  s               326      7.041884   9 H  s         
    62      5.673821   2 C  py              246      5.696352   6 C  py        
   200      5.398525   5 C  py              154      5.290310   4 C  py        
   108      5.040658   3 C  py              279      4.184104   7 H  s         
 
 Vector   36  Occ=0.000000D+00  E= 8.154017D-02
              MO Center= -8.8D-02,  1.4D+00,  6.6D-05, r^2= 2.8D+01
   Bfn.  Coefficient  Atom+Function         Bfn.  Coefficient  Atom+Function  
  ----- ------------  ---------------      ----- ------------  ---------------
   143     20.697392   4 C  s                51     -8.921241   2 C  s         
   235     -8.923645   6 C  s               246      5.263316   6 C  py        
    62      5.171333   2 C  py              325     -4.973861   9 H  s         
   280     -4.555355   7 H  s               372     -4.555694  11 H  s         
   200      4.473481   5 C  py              326      4.491140   9 H  s         
 
 Vector   37  Occ=0.000000D+00  E= 8.315400D-02
              MO Center=  4.6D-02, -7.3D-01, -1.0D-05, r^2= 2.2D+01
   Bfn.  Coefficient  Atom+Function         Bfn.  Coefficient  Atom+Function  
  ----- ------------  ---------------      ----- ------------  ---------------
    97      4.998079   3 C  s               189     -4.998741   5 C  s         
    51     -3.222607   2 C  s               235      3.225873   6 C  s         
   108      2.818445   3 C  py              303      2.821610   8 H  s         
   349     -2.821569  10 H  s               200     -2.702542   5 C  py        
   153      2.591315   4 C  px               96      2.104566   3 C  s         
 
 Vector   38  Occ=0.000000D+00  E= 9.543710D-02
              MO Center= -5.6D-02,  8.9D-01,  1.4D-05, r^2= 3.0D+01
   Bfn.  Coefficient  Atom+Function         Bfn.  Coefficient  Atom+Function  
  ----- ------------  ---------------      ----- ------------  ---------------
    51     17.657842   2 C  s               235    -17.659872   6 C  s         
   280      7.221414   7 H  s               372     -7.221478  11 H  s         
    97     -6.946794   3 C  s               189      6.947217   5 C  s         
   108     -6.440925   3 C  py              303     -6.195496   8 H  s         
   349      6.194817  10 H  s               200      5.898995   5 C  py        
 
 Vector   39  Occ=0.000000D+00  E= 1.017976D-01
              MO Center= -7.0D-03,  1.1D-01, -3.3D-04, r^2= 1.9D+01
   Bfn.  Coefficient  Atom+Function         Bfn.  Coefficient  Atom+Function  
  ----- ------------  ---------------      ----- ------------  ---------------
    51     13.785435   2 C  s               235    -13.784345   6 C  s         
    97     10.877908   3 C  s               189    -10.878340   5 C  s         
    15      9.996858   1 C  px              153      9.747973   4 C  px        
   108     -6.059599   3 C  py              246     -6.076220   6 C  py        
   200      6.026375   5 C  py               62      5.889595   2 C  py        
 
 Vector   40  Occ=0.000000D+00  E= 1.064560D-01
              MO Center= -8.0D-03,  1.3D-01, -5.5D-04, r^2= 2.1D+01
   Bfn.  Coefficient  Atom+Function         Bfn.  Coefficient  Atom+Function  
  ----- ------------  ---------------      ----- ------------  ---------------
   143     18.224442   4 C  s                51     -9.907997   2 C  s         
   235     -9.907726   6 C  s                 5     -9.472226   1 C  s         
   107     -8.770002   3 C  px              199      7.993586   5 C  px        
   245     -7.049321   6 C  px              200      6.690062   5 C  py        
    61      6.498382   2 C  px              108      5.633759   3 C  py        
 
 Vector   41  Occ=0.000000D+00  E= 1.082097D-01
              MO Center= -1.0D-02,  1.6D-01, -9.4D-05, r^2= 2.2D+01
   Bfn.  Coefficient  Atom+Function         Bfn.  Coefficient  Atom+Function  
  ----- ------------  ---------------      ----- ------------  ---------------
    63      3.394146   2 C  pz              247     -3.394224   6 C  pz        
   109     -3.362765   3 C  pz              201      3.363120   5 C  pz        
    60      0.697522   2 C  pz              244     -0.697545   6 C  pz        
   106     -0.637153   3 C  pz              198      0.637231   5 C  pz        
    77     -0.380718   2 C  d  1            215      0.361632   5 C  d  1      
 
 Vector   42  Occ=0.000000D+00  E= 1.089844D-01
              MO Center=  2.9D-02, -4.7D-01,  2.3D-03, r^2= 2.1D+01
   Bfn.  Coefficient  Atom+Function         Bfn.  Coefficient  Atom+Function  
  ----- ------------  ---------------      ----- ------------  ---------------
   155      5.305247   4 C  pz              109     -3.426273   3 C  pz        
   201     -3.426054   5 C  pz               17      2.534339   1 C  pz        
   152      0.981796   4 C  pz              106     -0.601762   3 C  pz        
   198     -0.601729   5 C  pz              167      0.570052   4 C  d -1      
    14      0.509013   1 C  pz               63     -0.495255   2 C  pz        
 
 Vector   43  Occ=0.000000D+00  E= 1.094612D-01
              MO Center=  2.9D-02, -4.6D-01, -1.3D-03, r^2= 2.7D+01
   Bfn.  Coefficient  Atom+Function         Bfn.  Coefficient  Atom+Function  
  ----- ------------  ---------------      ----- ------------  ---------------
   326      7.636645   9 H  s               154      7.084951   4 C  py        
   303     -6.444680   8 H  s               349     -6.445098  10 H  s         
   143     -5.744536   4 C  s               108     -4.478273   3 C  py        
   200     -4.241854   5 C  py               62     -4.204246   2 C  py        
   246     -4.175750   6 C  py                4      3.910782   1 C  s         
 
 Vector   44  Occ=0.000000D+00  E= 1.178886D-01
              MO Center= -4.1D-02,  6.5D-01, -4.2D-04, r^2= 1.4D+01
   Bfn.  Coefficient  Atom+Function         Bfn.  Coefficient  Atom+Function  
  ----- ------------  ---------------      ----- ------------  ---------------
    17      6.894446   1 C  pz               63     -6.041147   2 C  pz        
   247     -6.040991   6 C  pz              109      5.079131   3 C  pz        
   201      5.078965   5 C  pz              155     -4.854689   4 C  pz        
    14      1.236644   1 C  pz               60     -1.022399   2 C  pz        
   244     -1.022365   6 C  pz              106      0.895575   3 C  pz        
 
 Vector   45  Occ=0.000000D+00  E= 1.264150D-01
              MO Center= -1.9D-02,  3.0D-01, -1.8D-05, r^2= 2.5D+01
   Bfn.  Coefficient  Atom+Function         Bfn.  Coefficient  Atom+Function  
  ----- ------------  ---------------      ----- ------------  ---------------
    51      7.614956   2 C  s               235     -7.615003   6 C  s         
   107      7.199040   3 C  px              199      7.119667   5 C  px        
   245     -7.050538   6 C  px               61     -6.941720   2 C  px        
    15      6.472139   1 C  px               97     -6.185862   3 C  s         
   189      6.185810   5 C  s               153     -5.795222   4 C  px        
 
 Vector   46  Occ=0.000000D+00  E= 1.274487D-01
              MO Center= -1.2D-02,  1.9D-01,  1.4D-04, r^2= 2.6D+01
   Bfn.  Coefficient  Atom+Function         Bfn.  Coefficient  Atom+Function  
  ----- ------------  ---------------      ----- ------------  ---------------
   154     -8.014690   4 C  py               16      7.438995   1 C  py        
   108      6.884426   3 C  py               62     -6.583455   2 C  py        
   200      6.567002   5 C  py              246     -6.390359   6 C  py        
   326     -4.033266   9 H  s                 5      3.577142   1 C  s         
   303      3.155487   8 H  s               349      3.155988  10 H  s         
 
 Vector   47  Occ=0.000000D+00  E= 1.610462D-01
              MO Center= -8.8D-03,  1.4D-01,  9.9D-05, r^2= 1.7D+01
   Bfn.  Coefficient  Atom+Function         Bfn.  Coefficient  Atom+Function  
  ----- ------------  ---------------      ----- ------------  ---------------
    17      8.205933   1 C  pz               63     -8.009744   2 C  pz        
   247     -8.009854   6 C  pz              155     -7.839119   4 C  pz        
   109      7.760558   3 C  pz              201      7.760672   5 C  pz        
    60     -1.193831   2 C  pz              106      1.189303   3 C  pz        
   198      1.189336   5 C  pz              244     -1.193859   6 C  pz        
 
 Vector   48  Occ=0.000000D+00  E= 1.661552D-01
              MO Center= -8.9D-02,  1.4D+00,  3.1D-04, r^2= 2.2D+01
   Bfn.  Coefficient  Atom+Function         Bfn.  Coefficient  Atom+Function  
  ----- ------------  ---------------      ----- ------------  ---------------
     5     59.303082   1 C  s                51    -26.043635   2 C  s         
   143     26.034906   4 C  s               235    -26.044314   6 C  s         
    97    -14.448122   3 C  s               189    -14.447238   5 C  s         
   154      7.433756   4 C  py              245      6.806721   6 C  px        
    61     -6.391666   2 C  px              326      6.156341   9 H  s         
 
 Vector   49  Occ=0.000000D+00  E= 1.754212D-01
              MO Center=  2.5D-02, -3.9D-01, -1.6D-04, r^2= 1.1D+01
   Bfn.  Coefficient  Atom+Function         Bfn.  Coefficient  Atom+Function  
  ----- ------------  ---------------      ----- ------------  ---------------
   335      1.104878   9 H  pz              312      1.077696   8 H  pz        
   358      1.077644  10 H  pz              289      0.974731   7 H  pz        
   381      0.974687  11 H  pz               17      0.940027   1 C  pz        
    63     -0.866871   2 C  pz              247     -0.866840   6 C  pz        
   106     -0.846823   3 C  pz              198     -0.846767   5 C  pz        
 
 Vector   50  Occ=0.000000D+00  E= 1.863852D-01
              MO Center=  3.5D-02, -5.5D-01,  9.6D-05, r^2= 1.5D+01
   Bfn.  Coefficient  Atom+Function         Bfn.  Coefficient  Atom+Function  
  ----- ------------  ---------------      ----- ------------  ---------------
     5     15.481641   1 C  s                97     -7.255862   3 C  s         
   189     -7.255418   5 C  s                51     -4.517449   2 C  s         
   235     -4.517478   6 C  s               325      4.385662   9 H  s         
    62     -4.021673   2 C  py              154      3.975204   4 C  py        
   246     -3.800241   6 C  py               50     -3.243440   2 C  s         
 
 Vector   51  Occ=0.000000D+00  E= 1.980372D-01
              MO Center= -3.0D-02,  4.7D-01,  3.6D-04, r^2= 2.3D+01
   Bfn.  Coefficient  Atom+Function         Bfn.  Coefficient  Atom+Function  
  ----- ------------  ---------------      ----- ------------  ---------------
    51     44.615280   2 C  s               235    -44.599733   6 C  s         
    97     25.212442   3 C  s               189    -25.216652   5 C  s         
    15     18.443452   1 C  px              153     17.117196   4 C  px        
   302    -14.021828   8 H  s               348     14.023209  10 H  s         
   200      9.278320   5 C  py              108     -8.560849   3 C  py        
 
 Vector   52  Occ=0.000000D+00  E= 1.984564D-01
              MO Center=  4.6D-02, -7.3D-01, -5.1D-04, r^2= 2.3D+01
   Bfn.  Coefficient  Atom+Function         Bfn.  Coefficient  Atom+Function  
  ----- ------------  ---------------      ----- ------------  ---------------
   143     61.486074   4 C  s                51    -34.599816   2 C  s         
   235    -34.619744   6 C  s               325    -16.913185   9 H  s         
    62     14.776872   2 C  py              246     14.499538   6 C  py        
   200     13.778393   5 C  py              108     12.561740   3 C  py        
     5    -11.586656   1 C  s               279     11.193354   7 H  s         
 
 Vector   53  Occ=0.000000D+00  E= 2.154198D-01
              MO Center=  8.6D-02, -1.4D+00, -3.8D-05, r^2= 1.5D+01
   Bfn.  Coefficient  Atom+Function         Bfn.  Coefficient  Atom+Function  
  ----- ------------  ---------------      ----- ------------  ---------------
    97     14.061712   3 C  s               189    -14.061312   5 C  s         
    96      6.600203   3 C  s               188     -6.600273   5 C  s         
   153      6.484218   4 C  px              279     -5.190468   7 H  s         
   371      5.190226  11 H  s               303      4.710114   8 H  s         
   349     -4.709826  10 H  s               246     -4.603771   6 C  py        
 
 Vector   54  Occ=0.000000D+00  E= 2.183584D-01
              MO Center=  1.9D-02, -3.0D-01, -1.8D-04, r^2= 1.5D+01
   Bfn.  Coefficient  Atom+Function         Bfn.  Coefficient  Atom+Function  
  ----- ------------  ---------------      ----- ------------  ---------------
   143     25.267033   4 C  s                51    -17.426970   2 C  s         
   235    -17.439813   6 C  s                 5     15.849189   1 C  s         
    16     -6.388149   1 C  py              325     -5.955402   9 H  s         
    62      4.775555   2 C  py              246      4.662784   6 C  py        
   279      3.679982   7 H  s               371      3.680441  11 H  s         
 
 Vector   55  Occ=0.000000D+00  E= 2.191155D-01
              MO Center=  7.4D-03, -1.2D-01,  1.1D-03, r^2= 1.5D+01
   Bfn.  Coefficient  Atom+Function         Bfn.  Coefficient  Atom+Function  
  ----- ------------  ---------------      ----- ------------  ---------------
    51     19.855121   2 C  s               235    -19.844801   6 C  s         
   108     -8.527628   3 C  py              200      8.165173   5 C  py        
    15      7.422016   1 C  px              302     -6.939988   8 H  s         
   348      6.940010  10 H  s               153      6.195328   4 C  px        
   246     -3.934308   6 C  py               62      3.804429   2 C  py        
 
 Vector   56  Occ=0.000000D+00  E= 2.301221D-01
              MO Center= -1.6D-02,  2.6D-01,  1.9D-03, r^2= 1.8D+01
   Bfn.  Coefficient  Atom+Function         Bfn.  Coefficient  Atom+Function  
  ----- ------------  ---------------      ----- ------------  ---------------
   199      4.902873   5 C  px              107      4.644224   3 C  px        
   153     -3.670942   4 C  px               50     -3.395504   2 C  s         
   234      3.395119   6 C  s               303      3.106983   8 H  s         
   349     -3.106354  10 H  s                15     -2.653607   1 C  px        
   108      2.363473   3 C  py               28      1.849158   1 C  d -2      
 
 Vector   57  Occ=0.000000D+00  E= 2.312067D-01
              MO Center= -7.8D-05,  1.5D-03, -3.8D-03, r^2= 1.6D+01
   Bfn.  Coefficient  Atom+Function         Bfn.  Coefficient  Atom+Function  
  ----- ------------  ---------------      ----- ------------  ---------------
   106      2.145232   3 C  pz              198     -2.145246   5 C  pz        
    60      2.046431   2 C  pz              244     -2.046393   6 C  pz        
   312     -1.818621   8 H  pz              358      1.818662  10 H  pz        
   289     -1.720209   7 H  pz              381      1.720177  11 H  pz        
   169     -1.372135   4 C  d  1             31     -1.256185   1 C  d  1      
 
 Vector   58  Occ=0.000000D+00  E= 2.353518D-01
              MO Center= -1.4D-02,  2.3D-01,  4.7D-04, r^2= 1.6D+01
   Bfn.  Coefficient  Atom+Function         Bfn.  Coefficient  Atom+Function  
  ----- ------------  ---------------      ----- ------------  ---------------
   143     15.045371   4 C  s                51    -10.549752   2 C  s         
   235    -10.541513   6 C  s               107     -8.190573   3 C  px        
   199      7.759018   5 C  px               61      5.450770   2 C  px        
   245     -5.330136   6 C  px              303     -4.396436   8 H  s         
   349     -4.397855  10 H  s                 5      4.182284   1 C  s         
 
 Vector   59  Occ=0.000000D+00  E= 2.364771D-01
              MO Center= -6.8D-03,  1.1D-01,  9.9D-04, r^2= 1.8D+01
   Bfn.  Coefficient  Atom+Function         Bfn.  Coefficient  Atom+Function  
  ----- ------------  ---------------      ----- ------------  ---------------
    97    -33.180343   3 C  s               189     33.180804   5 C  s         
    51     31.708818   2 C  s               235    -31.712562   6 C  s         
    96    -14.400513   3 C  s               188     14.399935   5 C  s         
   279     10.784277   7 H  s               371    -10.783346  11 H  s         
   302    -10.669396   8 H  s               348     10.669264  10 H  s         
 
 Vector   60  Occ=0.000000D+00  E= 2.434419D-01
              MO Center=  2.7D-03, -4.3D-02, -4.5D-04, r^2= 1.5D+01
   Bfn.  Coefficient  Atom+Function         Bfn.  Coefficient  Atom+Function  
  ----- ------------  ---------------      ----- ------------  ---------------
   152      3.415126   4 C  pz               14     -3.029367   1 C  pz        
   289      2.170985   7 H  pz              381      2.170998  11 H  pz        
   335     -2.124421   9 H  pz              261      2.002303   6 C  d  1      
    77     -1.988127   2 C  d  1             63     -1.594191   2 C  pz        
   247     -1.594119   6 C  pz              155      1.368962   4 C  pz        
 
 Vector   61  Occ=0.000000D+00  E= 2.595136D-01
              MO Center=  3.8D-02, -6.0D-01,  6.1D-05, r^2= 1.7D+01
   Bfn.  Coefficient  Atom+Function         Bfn.  Coefficient  Atom+Function  
  ----- ------------  ---------------      ----- ------------  ---------------
     5      8.698868   1 C  s               108     -6.613229   3 C  py        
   200     -6.023923   5 C  py              303     -5.162026   8 H  s         
   349     -5.161891  10 H  s               199      5.072752   5 C  px        
   197     -4.836531   5 C  py              143     -4.808244   4 C  s         
   105     -4.734141   3 C  py              154      4.309311   4 C  py        
 
 Vector   62  Occ=0.000000D+00  E= 2.620750D-01
              MO Center=  6.8D-02, -1.1D+00, -5.1D-05, r^2= 1.7D+01
   Bfn.  Coefficient  Atom+Function         Bfn.  Coefficient  Atom+Function  
  ----- ------------  ---------------      ----- ------------  ---------------
     5     19.104617   1 C  s               154     15.401312   4 C  py        
   143     15.251822   4 C  s                51    -14.623009   2 C  s         
   235    -14.624381   6 C  s               326      9.192947   9 H  s         
     4      6.057913   1 C  s               108     -4.792756   3 C  py        
    97     -4.696671   3 C  s               189     -4.695202   5 C  s         
 
 Vector   63  Occ=0.000000D+00  E= 2.677444D-01
              MO Center= -2.7D-02,  4.3D-01,  6.5D-05, r^2= 2.0D+01
   Bfn.  Coefficient  Atom+Function         Bfn.  Coefficient  Atom+Function  
  ----- ------------  ---------------      ----- ------------  ---------------
    51     20.203398   2 C  s               235    -20.203003   6 C  s         
    97    -11.949299   3 C  s               189     11.949776   5 C  s         
    61     11.029215   2 C  px              245     10.275454   6 C  px        
    96     -8.755527   3 C  s               188      8.755638   5 C  s         
   279      8.781171   7 H  s               371     -8.781442  11 H  s         
 
 Vector   64  Occ=0.000000D+00  E= 2.747933D-01
              MO Center= -1.7D-03,  2.7D-02,  6.8D-05, r^2= 1.4D+01
   Bfn.  Coefficient  Atom+Function         Bfn.  Coefficient  Atom+Function  
  ----- ------------  ---------------      ----- ------------  ---------------
   143      8.843885   4 C  s                 5      8.637460   1 C  s         
   154      5.711698   4 C  py              279     -5.615119   7 H  s         
   371     -5.614830  11 H  s               302     -4.676176   8 H  s         
   348     -4.675755  10 H  s               325     -4.398223   9 H  s         
    16     -4.041280   1 C  py              246      3.252804   6 C  py        
 
 Vector   65  Occ=0.000000D+00  E= 2.829461D-01
              MO Center= -1.2D-02,  1.9D-01, -2.1D-05, r^2= 1.6D+01
   Bfn.  Coefficient  Atom+Function         Bfn.  Coefficient  Atom+Function  
  ----- ------------  ---------------      ----- ------------  ---------------
    12      9.518839   1 C  px               97      8.852166   3 C  s         
   189     -8.852234   5 C  s               302      8.043032   8 H  s         
   348     -8.042617  10 H  s                51     -7.924357   2 C  s         
   235      7.923827   6 C  s               199      7.604303   5 C  px        
   107      7.137082   3 C  px              150      6.165691   4 C  px        
 
 Vector   66  Occ=0.000000D+00  E= 2.954827D-01
              MO Center= -3.9D-03,  6.2D-02, -2.0D-05, r^2= 1.6D+01
   Bfn.  Coefficient  Atom+Function         Bfn.  Coefficient  Atom+Function  
  ----- ------------  ---------------      ----- ------------  ---------------
    63      3.206084   2 C  pz              247     -3.205857   6 C  pz        
   109     -3.189493   3 C  pz              201      3.189093   5 C  pz        
   289     -2.281252   7 H  pz              381      2.281276  11 H  pz        
    60      2.261067   2 C  pz              244     -2.261076   6 C  pz        
   312      2.263232   8 H  pz              358     -2.263127  10 H  pz        
 
 Vector   67  Occ=0.000000D+00  E= 2.963610D-01
              MO Center= -6.0D-02,  9.5D-01,  4.1D-04, r^2= 1.4D+01
   Bfn.  Coefficient  Atom+Function         Bfn.  Coefficient  Atom+Function  
  ----- ------------  ---------------      ----- ------------  ---------------
     4     10.409982   1 C  s                59     -5.763622   2 C  py        
   243     -5.652844   6 C  py                5      5.526839   1 C  s         
   105     -5.542191   3 C  py              197     -5.152427   5 C  py        
    16      4.291988   1 C  py              279     -4.183446   7 H  s         
   371     -4.183211  11 H  s               325     -3.981301   9 H  s         
 
 Vector   68  Occ=0.000000D+00  E= 3.079899D-01
              MO Center=  1.7D-02, -2.7D-01, -4.6D-04, r^2= 1.5D+01
   Bfn.  Coefficient  Atom+Function         Bfn.  Coefficient  Atom+Function  
  ----- ------------  ---------------      ----- ------------  ---------------
   155      5.180982   4 C  pz               14      4.367383   1 C  pz        
   109     -3.743239   3 C  pz              201     -3.743388   5 C  pz        
   335     -2.714376   9 H  pz               60     -2.051801   2 C  pz        
   244     -2.051686   6 C  pz              152      1.847648   4 C  pz        
    17      1.836358   1 C  pz               29     -1.716670   1 C  d -1      
 
 Vector   69  Occ=0.000000D+00  E= 3.150000D-01
              MO Center=  6.1D-03, -9.6D-02,  1.8D-05, r^2= 9.1D+00
   Bfn.  Coefficient  Atom+Function         Bfn.  Coefficient  Atom+Function  
  ----- ------------  ---------------      ----- ------------  ---------------
   261      1.267316   6 C  d  1             77      1.151176   2 C  d  1      
   169     -1.085065   4 C  d  1             75     -0.996396   2 C  d -1      
   259      0.844075   6 C  d -1            289     -0.726671   7 H  pz        
   381      0.726672  11 H  pz               31      0.635727   1 C  d  1      
    60     -0.378885   2 C  pz              244      0.379091   6 C  pz        
 
 Vector   70  Occ=0.000000D+00  E= 3.284917D-01
              MO Center=  3.8D-02, -6.1D-01,  8.1D-05, r^2= 1.5D+01
   Bfn.  Coefficient  Atom+Function         Bfn.  Coefficient  Atom+Function  
  ----- ------------  ---------------      ----- ------------  ---------------
   142     12.121769   4 C  s                96      8.760023   3 C  s         
   188      8.760191   5 C  s               151     -6.810569   4 C  py        
   325     -5.772479   9 H  s                 4     -5.280706   1 C  s         
   334     -4.994843   9 H  py                5      4.943813   1 C  s         
   302     -4.357462   8 H  s               348     -4.356877  10 H  s         
 
 Vector   71  Occ=0.000000D+00  E= 3.348261D-01
              MO Center= -1.6D-03,  2.6D-02,  1.9D-04, r^2= 7.7D+00
   Bfn.  Coefficient  Atom+Function         Bfn.  Coefficient  Atom+Function  
  ----- ------------  ---------------      ----- ------------  ---------------
   289      2.025170   7 H  pz              381      2.025311  11 H  pz        
   335      1.818771   9 H  pz               14     -1.768752   1 C  pz        
   155     -1.690423   4 C  pz               63     -1.529008   2 C  pz        
   247     -1.529026   6 C  pz               77     -1.506486   2 C  d  1      
   261      1.406275   6 C  d  1            106     -1.272649   3 C  pz        
 
 Vector   72  Occ=0.000000D+00  E= 3.432548D-01
              MO Center=  2.5D-02, -4.0D-01, -4.4D-03, r^2= 1.2D+01
   Bfn.  Coefficient  Atom+Function         Bfn.  Coefficient  Atom+Function  
  ----- ------------  ---------------      ----- ------------  ---------------
   169      3.264106   4 C  d  1             31      2.725577   1 C  d  1      
   312     -2.501364   8 H  pz              358      2.501017  10 H  pz        
   123      2.191296   3 C  d  1            215      2.156413   5 C  d  1      
   106     -1.817582   3 C  pz              198      1.817625   5 C  pz        
   289     -1.404368   7 H  pz              381      1.404278  11 H  pz        
 
 Vector   73  Occ=0.000000D+00  E= 3.452092D-01
              MO Center= -3.5D-02,  5.5D-01, -2.4D-03, r^2= 1.2D+01
   Bfn.  Coefficient  Atom+Function         Bfn.  Coefficient  Atom+Function  
  ----- ------------  ---------------      ----- ------------  ---------------
   143     23.438751   4 C  s               325    -12.974959   9 H  s         
   279     12.124716   7 H  s               371     12.126981  11 H  s         
    51    -11.487730   2 C  s               235    -11.494105   6 C  s         
     5     -8.485517   1 C  s               197     -6.963144   5 C  py        
   105     -6.853640   3 C  py              243     -5.978301   6 C  py        
 
 Vector   74  Occ=0.000000D+00  E= 3.478446D-01
              MO Center=  9.8D-03, -1.6D-01,  4.0D-03, r^2= 1.2D+01
   Bfn.  Coefficient  Atom+Function         Bfn.  Coefficient  Atom+Function  
  ----- ------------  ---------------      ----- ------------  ---------------
    51     21.186303   2 C  s               235    -21.181574   6 C  s         
   302    -11.993012   8 H  s               348     11.995201  10 H  s         
    97     10.940461   3 C  s               189    -10.942831   5 C  s         
   279     -9.745704   7 H  s               371      9.739646  11 H  s         
    12     -8.106665   1 C  px              150     -7.044893   4 C  px        
 
 Vector   75  Occ=0.000000D+00  E= 3.481015D-01
              MO Center=  3.4D-02, -5.4D-01,  3.5D-03, r^2= 1.3D+01
   Bfn.  Coefficient  Atom+Function         Bfn.  Coefficient  Atom+Function  
  ----- ------------  ---------------      ----- ------------  ---------------
   155     -3.886808   4 C  pz               17      3.679014   1 C  pz        
   109      3.474417   3 C  pz              201      3.474552   5 C  pz        
    63     -3.355051   2 C  pz              247     -3.355124   6 C  pz        
   152     -3.015846   4 C  pz              213     -2.313127   5 C  d -1      
   289      2.263957   7 H  pz              381      2.263943  11 H  pz        
 
 Vector   76  Occ=0.000000D+00  E= 3.528418D-01
              MO Center=  3.2D-02, -5.0D-01, -1.5D-04, r^2= 1.4D+01
   Bfn.  Coefficient  Atom+Function         Bfn.  Coefficient  Atom+Function  
  ----- ------------  ---------------      ----- ------------  ---------------
    17      6.481323   1 C  pz               63     -5.939264   2 C  pz        
   247     -5.939326   6 C  pz              109      5.195757   3 C  pz        
   201      5.195789   5 C  pz              155     -4.926255   4 C  pz        
   335      3.923466   9 H  pz               14      3.837250   1 C  pz        
   167      3.035072   4 C  d -1             60     -2.703056   2 C  pz        
 
 Vector   77  Occ=0.000000D+00  E= 3.546481D-01
              MO Center= -2.0D-02,  3.2D-01, -7.2D-04, r^2= 1.5D+01
   Bfn.  Coefficient  Atom+Function         Bfn.  Coefficient  Atom+Function  
  ----- ------------  ---------------      ----- ------------  ---------------
     5     31.107079   1 C  s               143     16.661290   4 C  s         
    51    -16.146125   2 C  s               235    -16.143946   6 C  s         
   151    -11.162472   4 C  py              196     -7.616420   5 C  px        
    50      7.388926   2 C  s               234      7.388935   6 C  s         
    13      7.298301   1 C  py              104      7.198191   3 C  px        
 
 Vector   78  Occ=0.000000D+00  E= 3.600557D-01
              MO Center= -4.9D-02,  7.8D-01,  2.4D-04, r^2= 1.3D+01
   Bfn.  Coefficient  Atom+Function         Bfn.  Coefficient  Atom+Function  
  ----- ------------  ---------------      ----- ------------  ---------------
   289      3.417431   7 H  pz              381     -3.417518  11 H  pz        
    60      3.162156   2 C  pz              244     -3.162174   6 C  pz        
    77     -3.084023   2 C  d  1            121     -3.080738   3 C  d -1      
   259      3.028395   6 C  d -1            213      2.780971   5 C  d -1      
   312     -2.743093   8 H  pz              358      2.742990  10 H  pz        
 
 Vector   79  Occ=0.000000D+00  E= 3.685327D-01
              MO Center=  3.6D-02, -5.8D-01, -1.7D-04, r^2= 1.3D+01
   Bfn.  Coefficient  Atom+Function         Bfn.  Coefficient  Atom+Function  
  ----- ------------  ---------------      ----- ------------  ---------------
    96     10.651402   3 C  s               188     10.650375   5 C  s         
   104     -8.516985   3 C  px              196      8.512571   5 C  px        
   142     -7.553006   4 C  s                 5      6.902572   1 C  s         
   212      5.440922   5 C  d -2            258      5.332701   6 C  d -2      
   120     -5.268011   3 C  d -2            242     -5.122804   6 C  px        
 
 Vector   80  Occ=0.000000D+00  E= 3.722322D-01
              MO Center=  1.9D-02, -3.0D-01, -2.1D-04, r^2= 1.3D+01
   Bfn.  Coefficient  Atom+Function         Bfn.  Coefficient  Atom+Function  
  ----- ------------  ---------------      ----- ------------  ---------------
    97      9.857715   3 C  s               189     -9.856597   5 C  s         
    50      9.040325   2 C  s               234     -9.039831   6 C  s         
   279     -5.387932   7 H  s               371      5.390168  11 H  s         
   357      5.241423  10 H  py              311     -5.118293   8 H  py        
   212     -4.889049   5 C  d -2             51     -4.743643   2 C  s         
 
 Vector   81  Occ=0.000000D+00  E= 3.819288D-01
              MO Center=  3.6D-02, -5.7D-01, -8.6D-06, r^2= 1.6D+01
   Bfn.  Coefficient  Atom+Function         Bfn.  Coefficient  Atom+Function  
  ----- ------------  ---------------      ----- ------------  ---------------
   166      9.072117   4 C  d -2            333      7.093313   9 H  px        
   150     -6.646323   4 C  px              216     -6.556516   5 C  d  2      
   124      6.095211   3 C  d  2            279      5.923182   7 H  s         
   371     -5.923454  11 H  s               310      5.105046   8 H  px        
   356      5.045586  10 H  px               96     -4.783038   3 C  s         
 
 Vector   82  Occ=0.000000D+00  E= 3.934083D-01
              MO Center= -2.8D-02,  4.5D-01,  2.0D-04, r^2= 1.5D+01
   Bfn.  Coefficient  Atom+Function         Bfn.  Coefficient  Atom+Function  
  ----- ------------  ---------------      ----- ------------  ---------------
    12     12.215332   1 C  px               51    -10.962157   2 C  s         
   235     10.963638   6 C  s                78     -9.122689   2 C  d  2      
   262      8.796731   6 C  d  2             15     -6.794266   1 C  px        
   216      6.660122   5 C  d  2            153     -5.879923   4 C  px        
   124     -5.823309   3 C  d  2            379     -5.792867  11 H  px        
 
 Vector   83  Occ=0.000000D+00  E= 3.961915D-01
              MO Center= -5.2D-02,  8.3D-01,  2.4D-04, r^2= 1.2D+01
   Bfn.  Coefficient  Atom+Function         Bfn.  Coefficient  Atom+Function  
  ----- ------------  ---------------      ----- ------------  ---------------
   152     -7.529404   4 C  pz              106      7.333356   3 C  pz        
   198      7.333514   5 C  pz               60     -6.476065   2 C  pz        
   244     -6.476133   6 C  pz              167     -6.336246   4 C  d -1      
   215      5.123638   5 C  d  1            123     -4.718095   3 C  d  1      
    14      4.560982   1 C  pz              259      4.031959   6 C  d -1      
 
 Vector   84  Occ=0.000000D+00  E= 4.018131D-01
              MO Center= -3.4D-02,  5.3D-01, -7.3D-04, r^2= 1.5D+01
   Bfn.  Coefficient  Atom+Function         Bfn.  Coefficient  Atom+Function  
  ----- ------------  ---------------      ----- ------------  ---------------
     5     52.058098   1 C  s                51    -19.695172   2 C  s         
   235    -19.691839   6 C  s                97    -17.494680   3 C  s         
   189    -17.491836   5 C  s               143     11.489961   4 C  s         
   142    -10.283024   4 C  s                 4     -9.676464   1 C  s         
    50     -8.028211   2 C  s               234     -8.028958   6 C  s         
 
 Vector   85  Occ=0.000000D+00  E= 4.053582D-01
              MO Center= -5.5D-03,  8.7D-02, -8.4D-05, r^2= 1.3D+01
   Bfn.  Coefficient  Atom+Function         Bfn.  Coefficient  Atom+Function  
  ----- ------------  ---------------      ----- ------------  ---------------
[...]
     Occ.   21 alpha a   ---  Virt.   38 alpha a   -0.12148 X
     Occ.   13 beta  a   ---  Virt.   21 beta  a    0.05433 X
     Occ.   15 beta  a   ---  Virt.   21 beta  a    0.09895 X
     Occ.   19 beta  a   ---  Virt.   24 beta  a    0.21430 X
     Occ.   20 beta  a   ---  Virt.   22 beta  a   -0.14009 X
  ----------------------------------------------------------------------------
  Root  27         a              0.251993461 a.u.                6.8571 eV 
  <S2> =   1.6616
  ----------------------------------------------------------------------------
     Transition Moments    X  0.00002   Y  0.00000   Z  0.24513
     Transition Moments   XX  0.00004  XY -0.00006  XZ -0.01048
     Transition Moments   YY  0.00013  YZ  0.16460  ZZ  0.00003
     Dipole Oscillator Strength                    0.0100945288
     Electric Quadrupole                           0.0000000023
     Magnetic Dipole                               0.0000000309
     Total Oscillator Strength                     0.0100945619
 
     Occ.   19 alpha a   ---  Virt.   26 alpha a    0.98235 X
     Occ.   19 alpha a   ---  Virt.   35 alpha a   -0.07137 X
     Occ.   19 alpha a   ---  Virt.   36 alpha a   -0.07344 X
     Occ.   20 alpha a   ---  Virt.   25 alpha a    0.11415 X
     Occ.   20 beta  a   ---  Virt.   26 beta  a    0.05046 X
  ----------------------------------------------------------------------------
  Root  28         a              0.252631305 a.u.                6.8745 eV 
  <S2> =   1.8892
  ----------------------------------------------------------------------------
     Transition Moments    X -0.00003   Y -0.00001   Z -0.00005
     Transition Moments   XX -0.00001  XY  0.00002  XZ -0.39097
     Transition Moments   YY -0.00007  YZ -0.02466  ZZ -0.00002
     Dipole Oscillator Strength                    0.0000000007
     Electric Quadrupole                           0.0000000132
     Magnetic Dipole                               0.0000000094
     Total Oscillator Strength                     0.0000000233
 
     Occ.   19 alpha a   ---  Virt.   25 alpha a    0.24807 X
     Occ.   20 alpha a   ---  Virt.   26 alpha a    0.96020 X
     Occ.   20 alpha a   ---  Virt.   35 alpha a   -0.06170 X
     Occ.   20 alpha a   ---  Virt.   36 alpha a   -0.06525 X
     Occ.   19 beta  a   ---  Virt.   26 beta  a   -0.06476 X
  ----------------------------------------------------------------------------
  Root  29         a              0.253990844 a.u.                6.9114 eV 
  <S2> =   1.6186
  ----------------------------------------------------------------------------
     Transition Moments    X  0.00005   Y -0.00002   Z -0.00000
     Transition Moments   XX -0.00003  XY  0.00004  XZ -0.49101
     Transition Moments   YY -0.00011  YZ -0.03095  ZZ -0.00003
     Dipole Oscillator Strength                    0.0000000006
     Electric Quadrupole                           0.0000000211
     Magnetic Dipole                               0.0000000107
     Total Oscillator Strength                     0.0000000324
 
     Occ.   20 alpha a   ---  Virt.   26 alpha a    0.06933 X
     Occ.   19 beta  a   ---  Virt.   26 beta  a    0.98519 X
     Occ.   19 beta  a   ---  Virt.   35 beta  a   -0.05799 X
     Occ.   19 beta  a   ---  Virt.   36 beta  a   -0.07386 X
     Occ.   20 beta  a   ---  Virt.   25 beta  a    0.09691 X
  ----------------------------------------------------------------------------
  Root  30         a              0.254789050 a.u.                6.9332 eV 
  <S2> =   0.7704
  ----------------------------------------------------------------------------
     Transition Moments    X -1.50961   Y -0.09545   Z  0.00002
     Transition Moments   XX -0.02399  XY  0.18738  XZ -0.00004
     Transition Moments   YY  0.02317  YZ  0.00002  ZZ -0.00006
     Dipole Oscillator Strength                    0.3886437309
     Electric Quadrupole                           0.0000000031
     Magnetic Dipole                               0.0000000163
     Total Oscillator Strength                     0.3886437503
 
     Occ.   19 alpha a   ---  Virt.   22 alpha a   -0.38222 X
     Occ.   19 alpha a   ---  Virt.   22 alpha a    0.05337 Y
     Occ.   20 alpha a   ---  Virt.   23 alpha a    0.42931 X
     Occ.   20 alpha a   ---  Virt.   23 alpha a   -0.05134 Y
     Occ.   20 alpha a   ---  Virt.   29 alpha a   -0.14176 X
     Occ.   21 alpha a   ---  Virt.   25 alpha a    0.07516 X
     Occ.   21 alpha a   ---  Virt.   27 alpha a   -0.37782 X
     Occ.   13 beta  a   ---  Virt.   21 beta  a    0.12883 X
     Occ.   15 beta  a   ---  Virt.   21 beta  a    0.27172 X
     Occ.   19 beta  a   ---  Virt.   24 beta  a    0.50124 X
     Occ.   19 beta  a   ---  Virt.   29 beta  a   -0.14008 X
     Occ.   20 beta  a   ---  Virt.   22 beta  a   -0.35032 X
     Occ.   20 beta  a   ---  Virt.   22 beta  a    0.05637 Y
  ----------------------------------------------------------------------------
  Root  31         a              0.255346685 a.u.                6.9483 eV 
  <S2> =   0.8011
  ----------------------------------------------------------------------------
     Transition Moments    X  0.04033   Y -0.63166   Z -0.00000
     Transition Moments   XX -0.65399  XY  0.07772  XZ  0.00002
     Transition Moments   YY -1.88319  YZ -0.00003  ZZ -0.14649
     Dipole Oscillator Strength                    0.0681974353
     Electric Quadrupole                           0.0000000712
     Magnetic Dipole                               0.0000000000
     Total Oscillator Strength                     0.0681975066
 
     Occ.   19 alpha a   ---  Virt.   23 alpha a    0.10434 X
     Occ.   20 alpha a   ---  Virt.   22 alpha a    0.11386 X
     Occ.   21 alpha a   ---  Virt.   26 alpha a    0.18426 X
     Occ.   21 alpha a   ---  Virt.   28 alpha a   -0.91096 X
     Occ.   21 alpha a   ---  Virt.   30 alpha a   -0.12689 X
     Occ.   21 alpha a   ---  Virt.   31 alpha a   -0.16302 X
     Occ.   21 alpha a   ---  Virt.   48 alpha a    0.05624 X
     Occ.   16 beta  a   ---  Virt.   21 beta  a    0.18681 X
     Occ.   19 beta  a   ---  Virt.   22 beta  a    0.10859 X
     Occ.   20 beta  a   ---  Virt.   24 beta  a    0.09527 X
  ----------------------------------------------------------------------------
  Root  32         a              0.260671029 a.u.                7.0932 eV 
  <S2> =   0.8001
  ----------------------------------------------------------------------------
     Transition Moments    X -0.00001   Y  0.00001   Z -0.09555
     Transition Moments   XX  0.00001  XY  0.00001  XZ  0.04444
     Transition Moments   YY  0.00003  YZ -0.70545  ZZ -0.00000
     Dipole Oscillator Strength                    0.0015866352
     Electric Quadrupole                           0.0000000471
     Magnetic Dipole                               0.0000000330
     Total Oscillator Strength                     0.0015867154
 
     Occ.   21 alpha a   ---  Virt.   29 alpha a    0.97943 X
     Occ.   21 alpha a   ---  Virt.   33 alpha a    0.18007 X
  ----------------------------------------------------------------------------
  Root  33         a              0.265448413 a.u.                7.2232 eV 
  <S2> =   1.7807
  ----------------------------------------------------------------------------
     Transition Moments    X  0.00001   Y  0.00001   Z  0.00000
     Transition Moments   XX -0.00006  XY  0.00002  XZ  0.54576
     Transition Moments   YY -0.00003  YZ  0.03438  ZZ -0.00004
     Dipole Oscillator Strength                    0.0000000000
     Electric Quadrupole                           0.0000000298
     Magnetic Dipole                               0.0000000005
     Total Oscillator Strength                     0.0000000304
 
     Occ.   20 beta  a   ---  Virt.   27 beta  a    0.99105 X
     Occ.   20 beta  a   ---  Virt.   38 beta  a   -0.09643 X
  ----------------------------------------------------------------------------
  Root  34         a              0.267200141 a.u.                7.2709 eV 
  <S2> =   0.8206
  ----------------------------------------------------------------------------
     Transition Moments    X -0.07553   Y  1.19700   Z -0.00000
     Transition Moments   XX -0.00234  XY  0.04417  XZ -0.00001
     Transition Moments   YY -0.70026  YZ -0.00006  ZZ -0.04542
     Dipole Oscillator Strength                    0.2562478573
     Electric Quadrupole                           0.0000000157
     Magnetic Dipole                               0.0000000000
     Total Oscillator Strength                     0.2562478731
 
     Occ.   17 alpha a   ---  Virt.   23 alpha a    0.08496 X
     Occ.   19 alpha a   ---  Virt.   23 alpha a   -0.30419 X
     Occ.   19 alpha a   ---  Virt.   29 alpha a   -0.16140 X
     Occ.   20 alpha a   ---  Virt.   22 alpha a   -0.22248 X
     Occ.   21 alpha a   ---  Virt.   28 alpha a   -0.29791 X
     Occ.   21 alpha a   ---  Virt.   30 alpha a    0.43672 X
     Occ.   21 alpha a   ---  Virt.   31 alpha a   -0.08053 X
     Occ.   14 beta  a   ---  Virt.   21 beta  a    0.08724 X
     Occ.   16 beta  a   ---  Virt.   21 beta  a   -0.49961 X
     Occ.   19 beta  a   ---  Virt.   22 beta  a   -0.22302 X
     Occ.   20 beta  a   ---  Virt.   24 beta  a   -0.30645 X
     Occ.   20 beta  a   ---  Virt.   29 beta  a   -0.34144 X
  ----------------------------------------------------------------------------
  Root  35         a              0.270827833 a.u.                7.3696 eV 
  <S2> =   2.7070
  ----------------------------------------------------------------------------
     Transition Moments    X -0.00000   Y -0.00001   Z -0.00946
     Transition Moments   XX  0.00000  XY -0.00001  XZ  0.00937
     Transition Moments   YY  0.00002  YZ -0.14834  ZZ -0.00000
     Dipole Oscillator Strength                    0.0000161714
     Electric Quadrupole                           0.0000000023
     Magnetic Dipole                               0.0000000000
     Total Oscillator Strength                     0.0000161738
 
     Occ.   20 alpha a   ---  Virt.   27 alpha a    0.79472 X
     Occ.   20 alpha a   ---  Virt.   38 alpha a   -0.08773 X
     Occ.   19 beta  a   ---  Virt.   27 beta  a   -0.58004 X
     Occ.   19 beta  a   ---  Virt.   38 beta  a    0.06850 X
     Occ.   20 beta  a   ---  Virt.   28 beta  a   -0.05391 X
     Occ.   20 beta  a   ---  Virt.   30 beta  a   -0.06099 X
  ----------------------------------------------------------------------------
  Root  36         a              0.271385775 a.u.                7.3848 eV 
  <S2> =   2.7407
  ----------------------------------------------------------------------------
     Transition Moments    X  0.04873   Y  0.00298   Z -0.00000
     Transition Moments   XX  0.00387  XY -0.02860  XZ  0.00002
     Transition Moments   YY -0.00381  YZ -0.00004  ZZ  0.00006
     Dipole Oscillator Strength                    0.0004311482
     Electric Quadrupole                           0.0000000001
     Magnetic Dipole                               0.0000000018
     Total Oscillator Strength                     0.0004311502
 
     Occ.   17 alpha a   ---  Virt.   22 alpha a    0.59751 X
     Occ.   17 alpha a   ---  Virt.   41 alpha a   -0.05240 X
     Occ.   19 alpha a   ---  Virt.   32 alpha a   -0.08409 X
     Occ.   20 alpha a   ---  Virt.   29 alpha a    0.16617 X
     Occ.   20 alpha a   ---  Virt.   44 alpha a   -0.22705 X
     Occ.   20 alpha a   ---  Virt.   47 alpha a    0.17417 X
     Occ.   17 beta  a   ---  Virt.   22 beta  a   -0.64439 X
     Occ.   17 beta  a   ---  Virt.   41 beta  a    0.05433 X
     Occ.   19 beta  a   ---  Virt.   29 beta  a   -0.10341 X
     Occ.   19 beta  a   ---  Virt.   44 beta  a    0.20007 X
     Occ.   19 beta  a   ---  Virt.   47 beta  a   -0.16659 X
     Occ.   20 beta  a   ---  Virt.   31 beta  a    0.10203 X
  ----------------------------------------------------------------------------
  Root  37         a              0.271718138 a.u.                7.3938 eV 
  <S2> =   1.0383
  ----------------------------------------------------------------------------
     Transition Moments    X  0.03350   Y -0.53149   Z  0.00000
     Transition Moments   XX  1.06372  XY  0.11509  XZ -0.00000
     Transition Moments   YY -0.75542  YZ  0.00001  ZZ  0.24351
     Dipole Oscillator Strength                    0.0513740855
     Electric Quadrupole                           0.0000000901
     Magnetic Dipole                               0.0000000000
     Total Oscillator Strength                     0.0513741756
 
     Occ.   17 alpha a   ---  Virt.   23 alpha a   -0.06411 X
     Occ.   19 alpha a   ---  Virt.   23 alpha a    0.09676 X
     Occ.   21 alpha a   ---  Virt.   30 alpha a    0.79768 X
     Occ.   21 alpha a   ---  Virt.   31 alpha a   -0.20578 X
     Occ.   21 alpha a   ---  Virt.   35 alpha a    0.07497 X
     Occ.   21 alpha a   ---  Virt.   40 alpha a   -0.05663 X
     Occ.   14 beta  a   ---  Virt.   21 beta  a   -0.06491 X
     Occ.   16 beta  a   ---  Virt.   21 beta  a    0.19715 X
     Occ.   19 beta  a   ---  Virt.   22 beta  a    0.06231 X
     Occ.   20 beta  a   ---  Virt.   24 beta  a    0.10146 X
     Occ.   20 beta  a   ---  Virt.   29 beta  a    0.47676 X
  ----------------------------------------------------------------------------
  Root  38         a              0.271823637 a.u.                7.3967 eV 
  <S2> =   0.8263
  ----------------------------------------------------------------------------
     Transition Moments    X  0.00001   Y -0.00004   Z  0.02476
     Transition Moments   XX  0.00008  XY  0.00006  XZ -0.05500
     Transition Moments   YY -0.00012  YZ  0.87155  ZZ  0.00003
     Dipole Oscillator Strength                    0.0001111239
     Electric Quadrupole                           0.0000000816
     Magnetic Dipole                               0.0000000038
     Total Oscillator Strength                     0.0001112093
 
     Occ.   20 alpha a   ---  Virt.   27 alpha a   -0.57710 X
     Occ.   19 beta  a   ---  Virt.   27 beta  a   -0.79853 X
     Occ.   19 beta  a   ---  Virt.   38 beta  a    0.07483 X
     Occ.   20 beta  a   ---  Virt.   28 beta  a    0.12571 X
  ----------------------------------------------------------------------------
  Root  39         a              0.272320489 a.u.                7.4102 eV 
  <S2> =   1.7261
  ----------------------------------------------------------------------------
     Transition Moments    X  0.00001   Y -0.00001   Z  0.00002
     Transition Moments   XX -0.00006  XY  0.00002  XZ  0.54890
     Transition Moments   YY -0.00001  YZ  0.03485  ZZ -0.00003
     Dipole Oscillator Strength                    0.0000000001
     Electric Quadrupole                           0.0000000325
     Magnetic Dipole                               0.0000000013
     Total Oscillator Strength                     0.0000000339
 
     Occ.   19 alpha a   ---  Virt.   27 alpha a    0.99031 X
     Occ.   19 alpha a   ---  Virt.   38 alpha a   -0.09584 X
  ----------------------------------------------------------------------------
  Root  40         a              0.272529468 a.u.                7.4159 eV 
  <S2> =   1.9631
  ----------------------------------------------------------------------------
     Transition Moments    X  0.00001   Y -0.00004   Z -0.04129
     Transition Moments   XX -0.00001  XY -0.00002  XZ  0.02790
     Transition Moments   YY -0.00006  YZ -0.44073  ZZ -0.00001
     Dipole Oscillator Strength                    0.0003097366
     Electric Quadrupole                           0.0000000210
     Magnetic Dipole                               0.0000000051
     Total Oscillator Strength                     0.0003097627
 
     Occ.   19 alpha a   ---  Virt.   28 alpha a    0.11728 X
     Occ.   20 alpha a   ---  Virt.   27 alpha a   -0.12542 X
     Occ.   17 beta  a   ---  Virt.   21 beta  a    0.05514 X
     Occ.   19 beta  a   ---  Virt.   27 beta  a   -0.06510 X
     Occ.   20 beta  a   ---  Virt.   28 beta  a   -0.96987 X
     Occ.   20 beta  a   ---  Virt.   30 beta  a   -0.05466 X
     Occ.   20 beta  a   ---  Virt.   32 beta  a   -0.07450 X
     Occ.   20 beta  a   ---  Virt.   43 beta  a   -0.08101 X
 
              Target root =      1
          Target symmetry = none
      Ground state energy =   -231.646323259623
        Excitation energy =      0.106424248742
     Excited state energy =   -231.539899010881
 
  stored tddft:energy   -231.539899010881     

 Task  times  cpu:     2669.5s     wall:     2752.5s
 
 
                                NWChem Input Module
                                -------------------
 
 
 Summary of allocated global arrays
-----------------------------------
  No active global arrays



                         GA Statistics for process    0
                         ------------------------------

       create   destroy   get      put      acc     scatter   gather  read&inc
calls: 9601     9601     1.01e+07 4.29e+06 2.11e+06 5660        0      288     
number of processes/call 1.32e+00 1.71e+00 1.90e+00 0.00e+00 0.00e+00
bytes total:             8.79e+10 1.17e+10 9.35e+10 6.26e+04 0.00e+00 2.30e+03
bytes remote:            6.39e+10 1.11e+09 8.93e+10 0.00e+00 0.00e+00 0.00e+00
Max memory consumed for GA by this process: 205086464 bytes
 
MA_summarize_allocated_blocks: starting scan ...
MA_summarize_allocated_blocks: scan completed: 0 heap blocks, 0 stack blocks
MA usage statistics:

	allocation statistics:
					      heap	     stack
					      ----	     -----
	current number of blocks	         0	         0
	maximum number of blocks	        20	        52
	current total bytes		         0	         0
	maximum total bytes		   1166016	  68276392
	maximum total K-bytes		      1167	     68277
	maximum total M-bytes		         2	        69
 
 
                                     CITATION
                                     --------
                Please cite the following reference when publishing
                           results obtained with NWChem:
 
                 M. Valiev, E.J. Bylaska, N. Govind, K. Kowalski,
              T.P. Straatsma, H.J.J. van Dam, D. Wang, J. Nieplocha,
                        E. Apra, T.L. Windus, W.A. de Jong
                 "NWChem: a comprehensive and scalable open-source
                  solution for large scale molecular simulations"
                      Comput. Phys. Commun. 181, 1477 (2010)
                           doi:10.1016/j.cpc.2010.04.018
 
                                      AUTHORS
                                      -------
          E. Apra, E. J. Bylaska, W. A. de Jong, N. Govind, K. Kowalski,
       T. P. Straatsma, M. Valiev, H. J. J. van Dam, D. Wang, T. L. Windus,
        J. Hammond, J. Autschbach, K. Bhaskaran-Nair, J. Brabec, K. Lopata,
    S. A. Fischer, S. Krishnamoorthy, M. Jacquelin, W. Ma, M. Klemm, O. Villa,
      Y. Chen, V. Anisimov, F. Aquino, S. Hirata, M. T. Hackler, V. Konjkov,
            D. Mejia-Rodriguez, T. Risthaus, M. Malagoli, A. Marenich,
   A. Otero-de-la-Roza, J. Mullin, P. Nichols, R. Peverati, J. Pittner, Y. Zhao,
        P.-D. Fan, A. Fonari, M. J. Williamson, R. J. Harrison, J. R. Rehr,
      M. Dupuis, D. Silverstein, D. M. A. Smith, J. Nieplocha, V. Tipparaju,
    M. Krishnan, B. E. Van Kuiken, A. Vazquez-Mayagoitia, L. Jensen, M. Swart,
      Q. Wu, T. Van Voorhis, A. A. Auer, M. Nooijen, L. D. Crosby, E. Brown,
      G. Cisneros, G. I. Fann, H. Fruchtl, J. Garza, K. Hirao, R. A. Kendall,
      J. A. Nichols, K. Tsemekhman, K. Wolinski, J. Anchell, D. E. Bernholdt,
      P. Borowski, T. Clark, D. Clerc, H. Dachsel, M. J. O. Deegan, K. Dyall,
    D. Elwood, E. Glendening, M. Gutowski, A. C. Hess, J. Jaffe, B. G. Johnson,
     J. Ju, R. Kobayashi, R. Kutteh, Z. Lin, R. Littlefield, X. Long, B. Meng,
      T. Nakajima, S. Niu, L. Pollack, M. Rosing, K. Glaesemann, G. Sandrone,
      M. Stave, H. Taylor, G. Thomas, J. H. van Lenthe, A. T. Wong, Z. Zhang.

 Total times  cpu:     2669.5s     wall:     2752.9s
