 argument  1 = /storage/home/j/jbb5516/normalModes/mode815.46-m.nw
 


============================== echo of input deck ==============================
echo
start

title "None"

geometry
C    -0.08747224    1.38830409   -0.00000001
C    -1.26735482    0.69112092   -0.00045056
C    -1.16733630   -0.70470852   -0.00032218
C     0.08291598   -1.31598916   -0.00000002
C     1.24655610   -0.55261762    0.00032215
C     1.17058620    0.84472727    0.00045071
H    -2.23189055    1.18090100    0.00286930
H    -2.06748412   -1.30603725    0.00233675
H     0.15092404   -2.39537432    0.00000018
H     2.21506130   -1.03620839   -0.00233638
H     2.06601969    1.45169726   -0.00287009
symmetry c1
end

basis spherical
 * library "aug-cc-pvtz"
end

dft
 direct
 mult 2
 iterations 500
 xc b3lyp
end

tddft
 nroots 40
 notriplet
 algorithm 1
end
task tddft energy
================================================================================


                                         
                                         
 
 
              Northwest Computational Chemistry Package (NWChem) 6.8
              ------------------------------------------------------
 
 
                    Environmental Molecular Sciences Laboratory
                       Pacific Northwest National Laboratory
                                Richland, WA 99352
 
                              Copyright (c) 1994-2017
                       Pacific Northwest National Laboratory
                            Battelle Memorial Institute
 
             NWChem is an open-source computational chemistry package
                        distributed under the terms of the
                      Educational Community License (ECL) 2.0
             A copy of the license is included with this distribution
                              in the LICENSE.TXT file
 
                                  ACKNOWLEDGMENT
                                  --------------

            This software and its documentation were developed at the
            EMSL at Pacific Northwest National Laboratory, a multiprogram
            national laboratory, operated for the U.S. Department of Energy
            by Battelle under Contract Number DE-AC05-76RL01830. Support
            for this work was provided by the Department of Energy Office
            of Biological and Environmental Research, Office of Basic
            Energy Sciences, and the Office of Advanced Scientific Computing.


           Job information
           ---------------

    hostname        = comp-sc-0366.acib.production.int.aci.ics.psu.edu
    program         = /gpfs/group/lxj18/default/jeffprograms/nwchem-6.8.1/bin/LINUX64/nwchem
    date            = Sun Sep 20 20:03:27 2020

    compiled        = Wed_Oct_03_14:08:39_2018
    source          = /gpfs/group/lxj18/default/jeffprograms/nwchem-6.8.1
    nwchem branch   = 6.8.1
    nwchem revision = v6.8-143-gdb0d964
    ga revision     = 5.6.5
    use scalapack   = F
    input           = /storage/home/j/jbb5516/normalModes/mode815.46-m.nw
    prefix          = mode815.46-m.
    data base       = ./mode815.46-m.db
    status          = startup
    nproc           =       20
    time left       =     -1s



           Memory information
           ------------------

    heap     =   13107198 doubles =    100.0 Mbytes
    stack    =   13107195 doubles =    100.0 Mbytes
    global   =   26214400 doubles =    200.0 Mbytes (distinct from heap & stack)
    total    =   52428793 doubles =    400.0 Mbytes
    verify   = yes
    hardfail = no 


           Directory information
           ---------------------
 
  0 permanent = .
  0 scratch   = .
 
 
 
 
                                NWChem Input Module
                                -------------------
 
 
                                       None
                                       ----

 Scaling coordinates for geometry "geometry" by  1.889725989
 (inverse scale =  0.529177249)

 Turning off AUTOSYM since
 SYMMETRY directive was detected!
 

          ------
          auto-z
          ------
 
 
                             Geometry "geometry" -> ""
                             -------------------------
 
 Output coordinates in angstroms (scale by  1.889725989 to convert to a.u.)
 
  No.       Tag          Charge          X              Y              Z
 ---- ---------------- ---------- -------------- -------------- --------------
    1 C                    6.0000    -0.08747224     1.38830409    -0.00000002
    2 C                    6.0000    -1.26735482     0.69112092    -0.00045057
    3 C                    6.0000    -1.16733630    -0.70470852    -0.00032219
    4 C                    6.0000     0.08291598    -1.31598916    -0.00000003
    5 C                    6.0000     1.24655610    -0.55261762     0.00032214
    6 C                    6.0000     1.17058620     0.84472727     0.00045070
    7 H                    1.0000    -2.23189055     1.18090100     0.00286929
    8 H                    1.0000    -2.06748412    -1.30603725     0.00233674
    9 H                    1.0000     0.15092404    -2.39537432     0.00000017
   10 H                    1.0000     2.21506130    -1.03620839    -0.00233639
   11 H                    1.0000     2.06601969     1.45169726    -0.00287010
 
      Atomic Mass 
      ----------- 
 
      C                 12.000000
      H                  1.007825
 

 Effective nuclear repulsion energy (a.u.)     195.0639503949

            Nuclear Dipole moment (a.u.) 
            ----------------------------
        X                 Y               Z
 ---------------- ---------------- ----------------
    -0.0000000000     0.0000000000    -0.0000000000
 


                                Z-matrix (autoz)
                                -------- 

 Units are Angstrom for bonds and degrees for angles
 
      Type          Name      I     J     K     L     M      Value
      ----------- --------  ----- ----- ----- ----- ----- ----------
    1 Stretch                  1     2                       1.37047
    2 Stretch                  1     6                       1.37047
    3 Stretch                  2     3                       1.39941
    4 Stretch                  2     7                       1.08177
    5 Stretch                  3     4                       1.39169
    6 Stretch                  3     8                       1.08253
    7 Stretch                  4     5                       1.39169
    8 Stretch                  4     9                       1.08153
    9 Stretch                  5     6                       1.39941
   10 Stretch                  5    10                       1.08253
   11 Stretch                  6    11                       1.08177
   12 Bend                     1     2     3               116.47996
   13 Bend                     1     2     7               122.50032
   14 Bend                     1     6     5               116.47996
   15 Bend                     1     6    11               122.50034
   16 Bend                     2     1     6               126.05349
   17 Bend                     2     3     4               120.15374
   18 Bend                     2     3     8               119.64562
   19 Bend                     3     2     7               121.01929
   20 Bend                     3     4     5               120.67911
   21 Bend                     3     4     9               119.66043
   22 Bend                     4     3     8               120.20041
   23 Bend                     4     5     6               120.15373
   24 Bend                     4     5    10               120.20045
   25 Bend                     5     4     9               119.66046
   26 Bend                     5     6    11               121.01926
   27 Bend                     6     5    10               119.64559
   28 Torsion                  1     2     3     4          -0.01138
   29 Torsion                  1     2     3     8         179.81740
   30 Torsion                  1     6     5     4          -0.01139
   31 Torsion                  1     6     5    10         179.81742
   32 Torsion                  2     1     6     5           0.00569
   33 Torsion                  2     1     6    11         179.76987
   34 Torsion                  2     3     4     5           0.00593
   35 Torsion                  2     3     4     9        -179.99409
   36 Torsion                  3     2     1     6           0.00566
   37 Torsion                  3     4     5     6           0.00593
   38 Torsion                  3     4     5    10        -179.82192
   39 Torsion                  4     3     2     7        -179.77938
   40 Torsion                  4     5     6    11        -179.77932
   41 Torsion                  5     4     3     8        -179.82189
   42 Torsion                  6     1     2     7         179.76992
   43 Torsion                  6     5     4     9        -179.99405
   44 Torsion                  7     2     3     8           0.04940
   45 Torsion                  8     3     4     9           0.17809
   46 Torsion                  9     4     5    10           0.17809
   47 Torsion                 10     5     6    11           0.04949
 
 
            XYZ format geometry
            -------------------
    11
 geometry
 C                    -0.08747224     1.38830409    -0.00000002
 C                    -1.26735482     0.69112092    -0.00045057
 C                    -1.16733630    -0.70470852    -0.00032219
 C                     0.08291598    -1.31598916    -0.00000003
 C                     1.24655610    -0.55261762     0.00032214
 C                     1.17058620     0.84472727     0.00045070
 H                    -2.23189055     1.18090100     0.00286929
 H                    -2.06748412    -1.30603725     0.00233674
 H                     0.15092404    -2.39537432     0.00000017
 H                     2.21506130    -1.03620839    -0.00233639
 H                     2.06601969     1.45169726    -0.00287010
 
 ==============================================================================
                                internuclear distances
 ------------------------------------------------------------------------------
       center one      |      center two      | atomic units |  angstroms
 ------------------------------------------------------------------------------
    2 C                |   1 C                |     2.58981  |     1.37047
    3 C                |   2 C                |     2.64450  |     1.39941
    4 C                |   3 C                |     2.62991  |     1.39169
    5 C                |   4 C                |     2.62991  |     1.39169
    6 C                |   1 C                |     2.58981  |     1.37047
    6 C                |   5 C                |     2.64450  |     1.39941
    7 H                |   2 C                |     2.04425  |     1.08177
    8 H                |   3 C                |     2.04568  |     1.08253
    9 H                |   4 C                |     2.04379  |     1.08153
   10 H                |   5 C                |     2.04568  |     1.08253
   11 H                |   6 C                |     2.04425  |     1.08177
 ------------------------------------------------------------------------------
                         number of included internuclear distances:         11
 ==============================================================================



 ==============================================================================
                                 internuclear angles
 ------------------------------------------------------------------------------
        center 1       |       center 2       |       center 3       |  degrees
 ------------------------------------------------------------------------------
    2 C                |   1 C                |   6 C                |   126.05
    1 C                |   2 C                |   3 C                |   116.48
    1 C                |   2 C                |   7 H                |   122.50
    3 C                |   2 C                |   7 H                |   121.02
    2 C                |   3 C                |   4 C                |   120.15
    2 C                |   3 C                |   8 H                |   119.65
    4 C                |   3 C                |   8 H                |   120.20
    3 C                |   4 C                |   5 C                |   120.68
    3 C                |   4 C                |   9 H                |   119.66
    5 C                |   4 C                |   9 H                |   119.66
    4 C                |   5 C                |   6 C                |   120.15
    4 C                |   5 C                |  10 H                |   120.20
    6 C                |   5 C                |  10 H                |   119.65
    1 C                |   6 C                |   5 C                |   116.48
    1 C                |   6 C                |  11 H                |   122.50
    5 C                |   6 C                |  11 H                |   121.02
 ------------------------------------------------------------------------------
                            number of included internuclear angles:         16
 ==============================================================================





 Summary of "ao basis" -> "" (spherical)
 ------------------------------------------------------------------------------
       Tag                 Description            Shells   Functions and Types
 ---------------- ------------------------------  ------  ---------------------
 *                        aug-cc-pvtz                 on all atoms 


 
                                 NWChem DFT Module
                                 -----------------
 
 
                                       None
 
 
                      Basis "ao basis" -> "ao basis" (spherical)
                      -----
  C (Carbon)
  ----------
            Exponent  Coefficients 
       -------------- ---------------------------------------------------------
  1 S  8.23600000E+03  0.000531
  1 S  1.23500000E+03  0.004108
  1 S  2.80800000E+02  0.021087
  1 S  7.92700000E+01  0.081853
  1 S  2.55900000E+01  0.234817
  1 S  8.99700000E+00  0.434401
  1 S  3.31900000E+00  0.346129
  1 S  3.64300000E-01 -0.008983
 
  2 S  8.23600000E+03 -0.000113
  2 S  1.23500000E+03 -0.000878
  2 S  2.80800000E+02 -0.004540
  2 S  7.92700000E+01 -0.018133
  2 S  2.55900000E+01 -0.055760
  2 S  8.99700000E+00 -0.126895
  2 S  3.31900000E+00 -0.170352
  2 S  3.64300000E-01  0.598684
 
  3 S  9.05900000E-01  1.000000
 
  4 S  1.28500000E-01  1.000000
 
  5 S  4.40200000E-02  1.000000
 
  6 P  1.87100000E+01  0.014031
  6 P  4.13300000E+00  0.086866
  6 P  1.20000000E+00  0.290216
 
  7 P  3.82700000E-01  1.000000
 
  8 P  1.20900000E-01  1.000000
 
  9 P  3.56900000E-02  1.000000
 
 10 D  1.09700000E+00  1.000000
 
 11 D  3.18000000E-01  1.000000
 
 12 D  1.00000000E-01  1.000000
 
 13 F  7.61000000E-01  1.000000
 
 14 F  2.68000000E-01  1.000000
 
  H (Hydrogen)
  ------------
            Exponent  Coefficients 
       -------------- ---------------------------------------------------------
  1 S  3.38700000E+01  0.006068
  1 S  5.09500000E+00  0.045308
  1 S  1.15900000E+00  0.202822
 
  2 S  3.25800000E-01  1.000000
 
  3 S  1.02700000E-01  1.000000
 
  4 S  2.52600000E-02  1.000000
 
  5 P  1.40700000E+00  1.000000
 
  6 P  3.88000000E-01  1.000000
 
  7 P  1.02000000E-01  1.000000
 
  8 D  1.05700000E+00  1.000000
 
  9 D  2.47000000E-01  1.000000
 


 Summary of "ao basis" -> "ao basis" (spherical)
 ------------------------------------------------------------------------------
       Tag                 Description            Shells   Functions and Types
 ---------------- ------------------------------  ------  ---------------------
 C                        aug-cc-pvtz               14       46   5s4p3d2f
 H                        aug-cc-pvtz                9       23   4s3p2d




 Summary of "ao basis" -> "ao basis" (spherical)
 ------------------------------------------------------------------------------
       Tag                 Description            Shells   Functions and Types
 ---------------- ------------------------------  ------  ---------------------
 C                        aug-cc-pvtz               14       46   5s4p3d2f
 H                        aug-cc-pvtz                9       23   4s3p2d


  Caching 1-el integrals 
 
            General Information
            -------------------
          SCF calculation type: DFT
          Wavefunction type:  spin polarized.
          No. of atoms     :    11
          No. of electrons :    41
           Alpha electrons :    21
            Beta electrons :    20
          Charge           :     0
          Spin multiplicity:     2
          Use of symmetry is: off; symmetry adaption is: off
          Maximum number of iterations: 500
          This is a Direct SCF calculation.
          AO basis - number of functions:   391
                     number of shells:   129
          Convergence on energy requested:  1.00D-06
          Convergence on density requested:  1.00D-05
          Convergence on gradient requested:  5.00D-04
 
              XC Information
              --------------
                         B3LYP Method XC Potential
                     Hartree-Fock (Exact) Exchange  0.200          
                        Slater Exchange Functional  0.800 local    
                    Becke 1988 Exchange Functional  0.720 non-local
              Lee-Yang-Parr Correlation Functional  0.810          
                  VWN I RPA Correlation Functional  0.190 local    
 
             Grid Information
             ----------------
          Grid used for XC integration:  medium    
          Radial quadrature: Mura-Knowles        
          Angular quadrature: Lebedev. 
          Tag              B.-S. Rad. Rad. Pts. Rad. Cut. Ang. Pts.
          ---              ---------- --------- --------- ---------
          C                   0.70       49          15.0       434
          H                   0.35       45          17.0       434
          Grid pruning is: on 
          Number of quadrature shells:   519
          Spatial weights used:  Erf1
 
          Convergence Information
          -----------------------
          Convergence aids based upon iterative change in 
          total energy or number of iterations. 
          Levelshifting, if invoked, occurs when the 
          HOMO/LUMO gap drops below (HL_TOL):  1.00D-02
          DIIS, if invoked, will attempt to extrapolate 
          using up to (NFOCK): 10 stored Fock matrices.

                    Damping( 0%)  Levelshifting(0.5)       DIIS
                  --------------- ------------------- ---------------
          dE  on:    start            ASAP                start   
          dE off:    2 iters        500 iters           500 iters 

 
      Screening Tolerance Information
      -------------------------------
          Density screening/tol_rho:  1.00D-10
          AO Gaussian exp screening on grid/accAOfunc:  14
          CD Gaussian exp screening on grid/accCDfunc:  20
          XC Gaussian exp screening on grid/accXCfunc:  20
          Schwarz screening/accCoul:  1.00D-08

 
 WARNING : Found     7 linear dependencies 
 S eigenvalue threshold:     1.00000E-05
 Smallest S eigenvalue :     1.46376E-06
 Largest  S eigenvalue :     7.76601E-06
 

 !! The overlap matrix has   7 vectors deemed linearly dependent with
    eigenvalues:
 1.46D-06 2.24D-06 2.83D-06 3.54D-06 5.28D-06 5.95D-06 7.77D-06
 
 
      Superposition of Atomic Density Guess
      -------------------------------------
 
 Sum of atomic energies:        -228.52307259
 
      Non-variational initial energy
      ------------------------------

 Total energy =    -232.667200
 1-e energy   =    -691.328428
 2-e energy   =     263.597278
 HOMO         =      -0.183325
 LUMO         =      -0.022269
 
   Time after variat. SCF:     10.0
   Time prior to 1st pass:     10.0

 Grid_pts file          = ./mode815.46-m.gridpts.00
 Record size in doubles =  12289        No. of grid_pts per rec  =   3070
 Max. records in memory =      6        Max. recs in file   = 218689741

 Grid integrated density:      40.999765897404
 Requested integration accuracy:   0.10E-05

           Memory utilization after 1st SCF pass: 
           Heap Space remaining (MW):       12.96            12961278
          Stack Space remaining (MW):       13.10            13103676

   convergence    iter        energy       DeltaE   RMS-Dens  Diis-err    time
 ---------------- ----- ----------------- --------- --------- ---------  ------
 d= 0,ls=0.0,diis     1   -231.5815904996 -4.27D+02  6.18D-02  2.09D-01    21.5
                                                     6.98D-02  1.96D-01
 d= 0,ls=0.0,diis     2   -231.6398331362 -5.82D-02  6.09D-02  1.22D-02    33.2
                                                     6.87D-02  1.25D-02
 d= 0,ls=0.0,diis     3   -231.6446105139 -4.78D-03  1.28D-03  3.44D-03    45.0
                                                     1.38D-03  3.50D-03
 d= 0,ls=0.0,diis     4   -231.6457674501 -1.16D-03  2.03D-04  1.12D-03    56.7
                                                     2.07D-04  1.06D-03
 d= 0,ls=0.0,diis     5   -231.6462856378 -5.18D-04  3.40D-05  4.24D-05    68.5
                                                     3.12D-05  4.84D-05
  Resetting Diis
 d= 0,ls=0.0,diis     6   -231.6463135156 -2.79D-05  1.11D-05  7.80D-06    80.3
                                                     1.06D-05  6.30D-06
 d= 0,ls=0.0,diis     7   -231.6463197082 -6.19D-06  7.31D-06  2.13D-06    92.1
                                                     6.52D-06  2.39D-06
 d= 0,ls=0.0,diis     8   -231.6463207847 -1.08D-06  3.05D-06  5.47D-06   104.0
                                                     2.70D-06  4.82D-06
 d= 0,ls=0.0,diis     9   -231.6463240717 -3.29D-06  3.73D-06  3.84D-07   115.8
                                                     3.31D-06  3.27D-07
 d= 0,ls=0.0,diis    10   -231.6463253746 -1.30D-06  2.14D-06  1.90D-07   127.7
                                                     2.45D-06  2.89D-07
 d= 0,ls=0.0,diis    11   -231.6463258096 -4.35D-07  5.94D-07  1.19D-08   139.5
                                                     5.14D-07  9.03D-09


         Total DFT energy =     -231.646325809568
      One electron energy =     -696.560872059866
           Coulomb energy =      304.259781793407
    Exchange-Corr. energy =      -34.409185937994
 Nuclear repulsion energy =      195.063950394885

 Numeric. integr. density =       40.999984402456

     Total iterative time =    129.5s


 
                    DFT Final Alpha Molecular Orbital Analysis
                    ------------------------------------------
 
 Vector    1  Occ=1.000000D+00  E=-1.020525D+01
              MO Center= -8.7D-02,  1.4D+00, -1.8D-08, r^2= 3.0D-02
   Bfn.  Coefficient  Atom+Function         Bfn.  Coefficient  Atom+Function  
  ----- ------------  ---------------      ----- ------------  ---------------
     1      0.984164   1 C  s                 3      0.058854   1 C  s         
    50     -0.038419   2 C  s               234     -0.038419   6 C  s         
   143      0.037876   4 C  s               279      0.037950   7 H  s         
   371      0.037948  11 H  s                51     -0.030670   2 C  s         
   235     -0.030669   6 C  s                47      0.025289   2 C  s         
 
 Vector    2  Occ=1.000000D+00  E=-1.019183D+01
              MO Center= -7.3D-01, -6.3D-01, -2.1D-04, r^2= 9.6D-01
   Bfn.  Coefficient  Atom+Function         Bfn.  Coefficient  Atom+Function  
  ----- ------------  ---------------      ----- ------------  ---------------
    93      0.874184   3 C  s               185      0.411885   5 C  s         
    47      0.176789   2 C  s               142     -0.092906   4 C  s         
   231      0.071978   6 C  s               139      0.055740   4 C  s         
    95      0.052268   3 C  s               302      0.049057   8 H  s         
   325      0.048090   9 H  s               234      0.036383   6 C  s         
 
 Vector    3  Occ=1.000000D+00  E=-1.019180D+01
              MO Center=  8.1D-01, -5.2D-01,  2.1D-04, r^2= 9.8D-01
   Bfn.  Coefficient  Atom+Function         Bfn.  Coefficient  Atom+Function  
  ----- ------------  ---------------      ----- ------------  ---------------
   185      0.872177   5 C  s                93     -0.407678   3 C  s         
   231      0.190370   6 C  s                47     -0.100652   2 C  s         
    50      0.062538   2 C  s               348      0.059048  10 H  s         
    51      0.052885   2 C  s               187      0.051929   5 C  s         
   279     -0.051669   7 H  s               234     -0.051084   6 C  s         
 
 Vector    4  Occ=1.000000D+00  E=-1.019034D+01
              MO Center= -1.1D+00,  6.4D-01, -4.0D-04, r^2= 3.9D-01
   Bfn.  Coefficient  Atom+Function         Bfn.  Coefficient  Atom+Function  
  ----- ------------  ---------------      ----- ------------  ---------------
    47      0.940280   2 C  s               231      0.221341   6 C  s         
    93     -0.191969   3 C  s               279      0.058557   7 H  s         
    49      0.054937   2 C  s               143      0.037883   4 C  s         
     4     -0.035236   1 C  s               185     -0.033125   5 C  s         
   142     -0.032005   4 C  s               189      0.031685   5 C  s         
 
 Vector    5  Occ=1.000000D+00  E=-1.019033D+01
              MO Center=  1.0D+00,  7.7D-01,  4.0D-04, r^2= 4.0D-01
   Bfn.  Coefficient  Atom+Function         Bfn.  Coefficient  Atom+Function  
  ----- ------------  ---------------      ----- ------------  ---------------
   231      0.938669   6 C  s                47     -0.214477   2 C  s         
   185     -0.197607   5 C  s                93      0.056936   3 C  s         
   371      0.056253  11 H  s               233      0.054440   6 C  s         
    97      0.045920   3 C  s                96      0.041035   3 C  s         
   189     -0.039669   5 C  s                12     -0.037461   1 C  px        
 
 Vector    6  Occ=1.000000D+00  E=-1.018432D+01
              MO Center=  8.3D-02, -1.3D+00, -2.5D-08, r^2= 3.5D-02
   Bfn.  Coefficient  Atom+Function         Bfn.  Coefficient  Atom+Function  
  ----- ------------  ---------------      ----- ------------  ---------------
   139      0.984285   4 C  s               141      0.057792   4 C  s         
    96     -0.045903   3 C  s               188     -0.045905   5 C  s         
   325      0.046003   9 H  s               143     -0.043504   4 C  s         
     4      0.040385   1 C  s                93     -0.039661   3 C  s         
   185     -0.039746   5 C  s               151      0.036014   4 C  py        
 
 Vector    7  Occ=1.000000D+00  E=-8.724604D-01
              MO Center= -6.3D-03,  9.9D-02,  3.8D-10, r^2= 2.0D+00
   Bfn.  Coefficient  Atom+Function         Bfn.  Coefficient  Atom+Function  
  ----- ------------  ---------------      ----- ------------  ---------------
     2      0.214063   1 C  s                48      0.202671   2 C  s         
   232      0.202654   6 C  s                94      0.195596   3 C  s         
   186      0.195580   5 C  s               140      0.188217   4 C  s         
    50      0.090243   2 C  s               234      0.090233   6 C  s         
    96      0.088094   3 C  s               188      0.088088   5 C  s         
 
 Vector    8  Occ=1.000000D+00  E=-7.627319D-01
              MO Center= -6.3D-03,  1.0D-01, -3.5D-09, r^2= 2.8D+00
   Bfn.  Coefficient  Atom+Function         Bfn.  Coefficient  Atom+Function  
  ----- ------------  ---------------      ----- ------------  ---------------
    48      0.250858   2 C  s               232     -0.250868   6 C  s         
    94      0.243819   3 C  s               186     -0.243827   5 C  s         
    50      0.146210   2 C  s               234     -0.146218   6 C  s         
   279     -0.129353   7 H  s               371      0.129357  11 H  s         
   150     -0.115511   4 C  px               97      0.110845   3 C  s         
 
 Vector    9  Occ=1.000000D+00  E=-7.537327D-01
              MO Center=  9.2D-03, -1.5D-01,  9.1D-09, r^2= 2.6D+00
   Bfn.  Coefficient  Atom+Function         Bfn.  Coefficient  Atom+Function  
  ----- ------------  ---------------      ----- ------------  ---------------
   140     -0.300918   4 C  s                 2      0.278554   1 C  s         
    94     -0.148871   3 C  s               186     -0.148864   5 C  s         
    48      0.148026   2 C  s               142     -0.147433   4 C  s         
   232      0.148017   6 C  s                96     -0.104906   3 C  s         
   188     -0.104904   5 C  s                 4      0.103013   1 C  s         
 
 Vector   10  Occ=1.000000D+00  E=-6.187396D-01
              MO Center= -2.5D-03,  3.9D-02, -7.8D-09, r^2= 3.6D+00
   Bfn.  Coefficient  Atom+Function         Bfn.  Coefficient  Atom+Function  
  ----- ------------  ---------------      ----- ------------  ---------------
    94     -0.208567   3 C  s               186      0.208561   5 C  s         
    48      0.199458   2 C  s               232     -0.199464   6 C  s         
    50      0.183358   2 C  s               234     -0.183366   6 C  s         
    96     -0.146994   3 C  s               188      0.146983   5 C  s         
     6     -0.127295   1 C  px              144      0.116927   4 C  px        
 
 Vector   11  Occ=1.000000D+00  E=-6.035488D-01
              MO Center=  5.4D-03, -8.7D-02,  3.0D-09, r^2= 3.5D+00
   Bfn.  Coefficient  Atom+Function         Bfn.  Coefficient  Atom+Function  
  ----- ------------  ---------------      ----- ------------  ---------------
   142      0.258345   4 C  s                 2      0.238938   1 C  s         
   140      0.218767   4 C  s                 4      0.198698   1 C  s         
    94     -0.138340   3 C  s               186     -0.138359   5 C  s         
    50     -0.122721   2 C  s               234     -0.122711   6 C  s         
    96     -0.119268   3 C  s               188     -0.119280   5 C  s         
 
 Vector   12  Occ=1.000000D+00  E=-5.277268D-01
              MO Center=  9.4D-03, -1.5D-01, -1.4D-11, r^2= 4.1D+00
   Bfn.  Coefficient  Atom+Function         Bfn.  Coefficient  Atom+Function  
  ----- ------------  ---------------      ----- ------------  ---------------
   148      0.159264   4 C  py              145      0.138838   4 C  py        
   324     -0.126841   9 H  s                55      0.105299   2 C  px        
   240     -0.104899   6 C  py              323     -0.100377   9 H  s         
   237     -0.096177   6 C  py              193     -0.094441   5 C  px        
   278     -0.094489   7 H  s               370     -0.094482  11 H  s         
 
 Vector   13  Occ=1.000000D+00  E=-4.645296D-01
              MO Center= -6.7D-03,  1.0D-01,  9.3D-09, r^2= 2.7D+00
   Bfn.  Coefficient  Atom+Function         Bfn.  Coefficient  Atom+Function  
  ----- ------------  ---------------      ----- ------------  ---------------
     9      0.189041   1 C  px                6      0.175362   1 C  px        
   147      0.172357   4 C  px              144      0.159073   4 C  px        
   239     -0.136869   6 C  px              194     -0.134751   5 C  py        
    56     -0.131374   2 C  py               55     -0.121398   2 C  px        
   191     -0.121433   5 C  py              236     -0.121874   6 C  px        
 
 Vector   14  Occ=1.000000D+00  E=-4.631574D-01
              MO Center=  1.0D-02, -1.6D-01, -1.1D-09, r^2= 4.8D+00
   Bfn.  Coefficient  Atom+Function         Bfn.  Coefficient  Atom+Function  
  ----- ------------  ---------------      ----- ------------  ---------------
     2      0.176558   1 C  s               301      0.136700   8 H  s         
   347      0.136676  10 H  s               140     -0.129403   4 C  s         
   193      0.127763   5 C  px              196      0.120322   5 C  px        
   101     -0.118803   3 C  px              190      0.118564   5 C  px        
    96      0.117516   3 C  s               104     -0.117398   3 C  px        
 
 Vector   15  Occ=1.000000D+00  E=-4.399780D-01
              MO Center= -1.3D-02,  2.1D-01, -5.2D-08, r^2= 4.0D+00
   Bfn.  Coefficient  Atom+Function         Bfn.  Coefficient  Atom+Function  
  ----- ------------  ---------------      ----- ------------  ---------------
   240      0.143965   6 C  py              102      0.139208   3 C  py        
   237      0.132905   6 C  py              278     -0.131461   7 H  s         
   370      0.131458  11 H  s                99      0.130192   3 C  py        
    55      0.129420   2 C  px               56     -0.128745   2 C  py        
   194     -0.126947   5 C  py               53     -0.119656   2 C  py        
 
 Vector   16  Occ=1.000000D+00  E=-3.990530D-01
              MO Center=  4.9D-02, -7.8D-01, -5.8D-08, r^2= 3.3D+00
   Bfn.  Coefficient  Atom+Function         Bfn.  Coefficient  Atom+Function  
  ----- ------------  ---------------      ----- ------------  ---------------
   148      0.233510   4 C  py              145      0.209191   4 C  py        
   324     -0.198591   9 H  s               151      0.172710   4 C  py        
   323     -0.154029   9 H  s                10      0.138646   1 C  py        
    13      0.120976   1 C  py              240      0.115208   6 C  py        
    56      0.109434   2 C  py                7      0.107929   1 C  py        
 
 Vector   17  Occ=1.000000D+00  E=-3.837003D-01
              MO Center= -7.7D-03,  1.2D-01,  4.4D-08, r^2= 2.7D+00
   Bfn.  Coefficient  Atom+Function         Bfn.  Coefficient  Atom+Function  
  ----- ------------  ---------------      ----- ------------  ---------------
    11      0.173449   1 C  pz               57      0.156408   2 C  pz        
   241      0.156396   6 C  pz              103      0.152229   3 C  pz        
   195      0.152217   5 C  pz              149      0.145891   4 C  pz        
     8      0.136823   1 C  pz               54      0.125782   2 C  pz        
   238      0.125772   6 C  pz              100      0.121730   3 C  pz        
 
 Vector   18  Occ=1.000000D+00  E=-3.659892D-01
              MO Center=  9.1D-03, -1.4D-01, -7.0D-08, r^2= 4.1D+00
   Bfn.  Coefficient  Atom+Function         Bfn.  Coefficient  Atom+Function  
  ----- ------------  ---------------      ----- ------------  ---------------
   147     -0.169331   4 C  px              101      0.165177   3 C  px        
   193      0.165097   5 C  px              144     -0.159883   4 C  px        
     9      0.149416   1 C  px               98      0.149455   3 C  px        
   190      0.149152   5 C  px                6      0.141598   1 C  px        
   196      0.135657   5 C  px              104      0.133536   3 C  px        
 
 Vector   19  Occ=1.000000D+00  E=-2.685136D-01
              MO Center=  9.1D-04, -1.5D-02,  3.6D-07, r^2= 3.0D+00
   Bfn.  Coefficient  Atom+Function         Bfn.  Coefficient  Atom+Function  
  ----- ------------  ---------------      ----- ------------  ---------------
    11      0.245300   1 C  pz              149     -0.238556   4 C  pz        
     8      0.192908   1 C  pz              146     -0.190710   4 C  pz        
    14      0.176331   1 C  pz              152     -0.171625   4 C  pz        
   103     -0.126597   3 C  pz              195     -0.126467   5 C  pz        
    57      0.114765   2 C  pz              241      0.114884   6 C  pz        
 
 Vector   20  Occ=1.000000D+00  E=-2.678726D-01
              MO Center= -3.8D-03,  6.1D-02, -2.6D-07, r^2= 3.1D+00
   Bfn.  Coefficient  Atom+Function         Bfn.  Coefficient  Atom+Function  
  ----- ------------  ---------------      ----- ------------  ---------------
   103      0.207430   3 C  pz              195     -0.207511   5 C  pz        
    57      0.203838   2 C  pz              241     -0.203774   6 C  pz        
   100      0.165264   3 C  pz              192     -0.165329   5 C  pz        
    54      0.163234   2 C  pz              238     -0.163183   6 C  pz        
    60      0.150522   2 C  pz              106      0.149942   3 C  pz        
 
 Vector   21  Occ=1.000000D+00  E=-2.484169D-01
              MO Center= -8.2D-02,  1.3D+00, -8.9D-08, r^2= 2.3D+00
   Bfn.  Coefficient  Atom+Function         Bfn.  Coefficient  Atom+Function  
  ----- ------------  ---------------      ----- ------------  ---------------
    10      0.385977   1 C  py               13      0.337674   1 C  py        
     5      0.335230   1 C  s                 7      0.299330   1 C  py        
     4      0.279440   1 C  s                 2      0.138345   1 C  s         
   243     -0.136196   6 C  py               59     -0.134140   2 C  py        
   102      0.112395   3 C  py              194      0.112406   5 C  py        
 
 Vector   22  Occ=0.000000D+00  E=-2.600798D-02
              MO Center= -4.3D-03,  6.8D-02,  4.6D-08, r^2= 4.3D+00
   Bfn.  Coefficient  Atom+Function         Bfn.  Coefficient  Atom+Function  
  ----- ------------  ---------------      ----- ------------  ---------------
   109     -0.320091   3 C  pz              201      0.320071   5 C  pz        
    63      0.314638   2 C  pz              247     -0.314625   6 C  pz        
    60      0.226969   2 C  pz              244     -0.226961   6 C  pz        
   106     -0.223734   3 C  pz              198      0.223722   5 C  pz        
    57      0.218765   2 C  pz              241     -0.218760   6 C  pz        
 
 Vector   23  Occ=0.000000D+00  E=-1.861324D-02
              MO Center=  3.1D-03, -5.0D-02,  1.8D-07, r^2= 4.3D+00
   Bfn.  Coefficient  Atom+Function         Bfn.  Coefficient  Atom+Function  
  ----- ------------  ---------------      ----- ------------  ---------------
   155      0.439588   4 C  pz               17      0.373553   1 C  pz        
   152      0.273939   4 C  pz               11      0.258952   1 C  pz        
   149      0.250782   4 C  pz               14      0.240481   1 C  pz        
   109     -0.226070   3 C  pz              201     -0.226081   5 C  pz        
     8      0.200624   1 C  pz               63     -0.198211   2 C  pz        
 
 Vector   24  Occ=0.000000D+00  E=-1.011005D-02
              MO Center=  6.0D-02, -9.5D-01,  3.1D-07, r^2= 2.0D+01
   Bfn.  Coefficient  Atom+Function         Bfn.  Coefficient  Atom+Function  
  ----- ------------  ---------------      ----- ------------  ---------------
     5      1.446653   1 C  s               279     -0.976458   7 H  s         
   371     -0.976455  11 H  s               326     -0.741578   9 H  s         
   303     -0.730324   8 H  s               349     -0.730190  10 H  s         
   302     -0.650232   8 H  s               348     -0.650241  10 H  s         
   325     -0.588324   9 H  s                51      0.561502   2 C  s         
 
 Vector   25  Occ=0.000000D+00  E= 4.381936D-03
              MO Center=  1.6D-02, -2.6D-01, -1.2D-07, r^2= 2.7D+01
   Bfn.  Coefficient  Atom+Function         Bfn.  Coefficient  Atom+Function  
  ----- ------------  ---------------      ----- ------------  ---------------
    51      2.731949   2 C  s               235     -2.731661   6 C  s         
    97      2.672514   3 C  s               189     -2.672523   5 C  s         
   303      1.996643   8 H  s               349     -1.996760  10 H  s         
    15      1.866770   1 C  px              153      1.807419   4 C  px        
   280      1.540123   7 H  s               372     -1.540002  11 H  s         
 
 Vector   26  Occ=0.000000D+00  E= 8.728800D-03
              MO Center=  4.6D-03, -7.3D-02,  1.5D-06, r^2= 2.7D+01
   Bfn.  Coefficient  Atom+Function         Bfn.  Coefficient  Atom+Function  
  ----- ------------  ---------------      ----- ------------  ---------------
   143      6.245455   4 C  s                51     -4.009764   2 C  s         
   235     -4.009939   6 C  s               326      2.932203   9 H  s         
     5      2.589685   1 C  s               280     -2.388391   7 H  s         
   372     -2.388392  11 H  s               154      1.947131   4 C  py        
   246      1.934056   6 C  py               62      1.829901   2 C  py        
 
 Vector   27  Occ=0.000000D+00  E= 2.670482D-02
              MO Center= -1.5D-02,  2.4D-01, -8.1D-07, r^2= 3.1D+01
   Bfn.  Coefficient  Atom+Function         Bfn.  Coefficient  Atom+Function  
  ----- ------------  ---------------      ----- ------------  ---------------
   280      3.932451   7 H  s               372     -3.932527  11 H  s         
    51      3.659839   2 C  s               235     -3.660218   6 C  s         
   303     -3.601943   8 H  s               349      3.601786  10 H  s         
    61      2.222183   2 C  px               97     -2.189943   3 C  s         
   189      2.189952   5 C  s               199     -2.040920   5 C  px        
 
 Vector   28  Occ=0.000000D+00  E= 3.221614D-02
              MO Center=  3.9D-02, -6.2D-01, -1.3D-05, r^2= 2.9D+01
   Bfn.  Coefficient  Atom+Function         Bfn.  Coefficient  Atom+Function  
  ----- ------------  ---------------      ----- ------------  ---------------
     5      6.396666   1 C  s               326     -4.998438   9 H  s         
   303      3.725483   8 H  s               349      3.725804  10 H  s         
    97     -2.179826   3 C  s               154     -2.176407   4 C  py        
   189     -2.179473   5 C  s               199     -1.647716   5 C  px        
   245      1.634028   6 C  px               61     -1.580529   2 C  px        
 
 Vector   29  Occ=0.000000D+00  E= 4.329312D-02
              MO Center=  1.4D-02, -2.2D-01, -3.7D-06, r^2= 1.3D+01
   Bfn.  Coefficient  Atom+Function         Bfn.  Coefficient  Atom+Function  
  ----- ------------  ---------------      ----- ------------  ---------------
   155      0.598816   4 C  pz               63      0.576381   2 C  pz        
   247      0.576340   6 C  pz               17     -0.260385   1 C  pz        
    51      0.160083   2 C  s               235     -0.160591   6 C  s         
    60     -0.154806   2 C  pz              244     -0.154828   6 C  pz        
    97      0.133810   3 C  s               189     -0.133944   5 C  s         
 
 Vector   30  Occ=0.000000D+00  E= 5.496329D-02
              MO Center=  9.4D-03, -1.5D-01,  3.7D-05, r^2= 1.5D+01
   Bfn.  Coefficient  Atom+Function         Bfn.  Coefficient  Atom+Function  
  ----- ------------  ---------------      ----- ------------  ---------------
     5     10.709337   1 C  s               143      5.282315   4 C  s         
    51     -4.488242   2 C  s               235     -4.488183   6 C  s         
   303     -2.801142   8 H  s               349     -2.801077  10 H  s         
   326      2.060516   9 H  s               199      2.006690   5 C  px        
    97     -1.951837   3 C  s               189     -1.951730   5 C  s         
 
 Vector   31  Occ=0.000000D+00  E= 6.334938D-02
              MO Center= -4.1D-02,  6.5D-01,  1.2D-04, r^2= 2.8D+01
   Bfn.  Coefficient  Atom+Function         Bfn.  Coefficient  Atom+Function  
  ----- ------------  ---------------      ----- ------------  ---------------
     5     24.375040   1 C  s                51     -9.852947   2 C  s         
   235     -9.852799   6 C  s               143      7.622259   4 C  s         
    97     -6.510576   3 C  s               189     -6.510515   5 C  s         
   326      5.864885   9 H  s               154      4.770714   4 C  py        
   303     -4.681777   8 H  s               349     -4.681927  10 H  s         
 
 Vector   32  Occ=0.000000D+00  E= 6.574606D-02
              MO Center=  1.6D-03, -2.5D-02, -6.7D-06, r^2= 1.8D+01
   Bfn.  Coefficient  Atom+Function         Bfn.  Coefficient  Atom+Function  
  ----- ------------  ---------------      ----- ------------  ---------------
   109      0.976518   3 C  pz              201     -0.976516   5 C  pz        
    63      0.770139   2 C  pz              247     -0.770098   6 C  pz        
   169     -0.676930   4 C  d  1             31     -0.583171   1 C  d  1      
   106      0.492292   3 C  pz              198     -0.492309   5 C  pz        
    60      0.488335   2 C  pz              244     -0.488307   6 C  pz        
 
 Vector   33  Occ=0.000000D+00  E= 6.826247D-02
              MO Center= -1.2D-02,  1.9D-01, -6.4D-05, r^2= 1.8D+01
   Bfn.  Coefficient  Atom+Function         Bfn.  Coefficient  Atom+Function  
  ----- ------------  ---------------      ----- ------------  ---------------
    63      1.024300   2 C  pz              247      1.024272   6 C  pz        
   109     -0.811973   3 C  pz              201     -0.811859   5 C  pz        
   155     -0.750692   4 C  pz               14      0.629603   1 C  pz        
   152     -0.617710   4 C  pz               17      0.458671   1 C  pz        
   213     -0.449594   5 C  d -1            121     -0.405771   3 C  d -1      
 
 Vector   34  Occ=0.000000D+00  E= 7.645768D-02
              MO Center=  9.2D-03, -1.6D-01,  5.5D-06, r^2= 3.4D+01
   Bfn.  Coefficient  Atom+Function         Bfn.  Coefficient  Atom+Function  
  ----- ------------  ---------------      ----- ------------  ---------------
    51     13.864955   2 C  s               235    -13.866747   6 C  s         
    97     12.409085   3 C  s               189    -12.409941   5 C  s         
    15      7.678054   1 C  px              153      7.708819   4 C  px        
   107      4.764468   3 C  px              303      4.691489   8 H  s         
   349     -4.690855  10 H  s               199      4.461401   5 C  px        
 
 Vector   35  Occ=0.000000D+00  E= 7.792183D-02
              MO Center=  2.1D-01, -3.3D+00,  1.1D-05, r^2= 2.1D+01
   Bfn.  Coefficient  Atom+Function         Bfn.  Coefficient  Atom+Function  
  ----- ------------  ---------------      ----- ------------  ---------------
   143     18.274613   4 C  s                51    -13.446787   2 C  s         
   235    -13.442547   6 C  s               326      7.026895   9 H  s         
    62      5.653980   2 C  py              246      5.677734   6 C  py        
   200      5.394777   5 C  py              154      5.274284   4 C  py        
   108      5.037678   3 C  py              279      4.190427   7 H  s         
 
 Vector   36  Occ=0.000000D+00  E= 8.155251D-02
              MO Center= -8.8D-02,  1.4D+00, -1.4D-05, r^2= 2.8D+01
   Bfn.  Coefficient  Atom+Function         Bfn.  Coefficient  Atom+Function  
  ----- ------------  ---------------      ----- ------------  ---------------
   143     20.710383   4 C  s                51     -8.944670   2 C  s         
   235     -8.947198   6 C  s               246      5.260400   6 C  py        
    62      5.166393   2 C  py              325     -4.965385   9 H  s         
   280     -4.564007   7 H  s               372     -4.564488  11 H  s         
   200      4.483040   5 C  py              326      4.499250   9 H  s         
 
 Vector   37  Occ=0.000000D+00  E= 8.317358D-02
              MO Center=  4.6D-02, -7.3D-01,  4.3D-07, r^2= 2.2D+01
   Bfn.  Coefficient  Atom+Function         Bfn.  Coefficient  Atom+Function  
  ----- ------------  ---------------      ----- ------------  ---------------
    97      4.941571   3 C  s               189     -4.941868   5 C  s         
    51     -3.130038   2 C  s               235      3.132475   6 C  s         
   108      2.795824   3 C  py              303      2.804060   8 H  s         
   349     -2.804082  10 H  s               200     -2.681931   5 C  py        
   153      2.603706   4 C  px               96      2.073023   3 C  s         
 
 Vector   38  Occ=0.000000D+00  E= 9.540144D-02
              MO Center= -5.5D-02,  8.8D-01, -2.7D-07, r^2= 3.1D+01
   Bfn.  Coefficient  Atom+Function         Bfn.  Coefficient  Atom+Function  
  ----- ------------  ---------------      ----- ------------  ---------------
    51     17.682734   2 C  s               235    -17.684432   6 C  s         
   280      7.217322   7 H  s               372     -7.217333  11 H  s         
    97     -6.906083   3 C  s               189      6.906342   5 C  s         
   108     -6.461436   3 C  py              303     -6.201697   8 H  s         
   349      6.201169  10 H  s               200      5.919111   5 C  py        
 
 Vector   39  Occ=0.000000D+00  E= 1.018011D-01
              MO Center= -7.1D-03,  1.1D-01,  3.8D-06, r^2= 1.9D+01
   Bfn.  Coefficient  Atom+Function         Bfn.  Coefficient  Atom+Function  
  ----- ------------  ---------------      ----- ------------  ---------------
    51     13.735549   2 C  s               235    -13.734601   6 C  s         
    97     10.882438   3 C  s               189    -10.882818   5 C  s         
    15     10.000331   1 C  px              153      9.716160   4 C  px        
   246     -6.096262   6 C  py              108     -6.023366   3 C  py        
   200      5.990191   5 C  py               62      5.909853   2 C  py        
 
 Vector   40  Occ=0.000000D+00  E= 1.064758D-01
              MO Center= -8.0D-03,  1.3D-01, -2.1D-05, r^2= 2.1D+01
   Bfn.  Coefficient  Atom+Function         Bfn.  Coefficient  Atom+Function  
  ----- ------------  ---------------      ----- ------------  ---------------
   143     18.275966   4 C  s                51     -9.937765   2 C  s         
   235     -9.937767   6 C  s                 5     -9.462096   1 C  s         
   107     -8.759183   3 C  px              199      7.978076   5 C  px        
   245     -7.043907   6 C  px              200      6.726497   5 C  py        
    61      6.488985   2 C  px              108      5.671787   3 C  py        
 
 Vector   41  Occ=0.000000D+00  E= 1.082036D-01
              MO Center= -1.0D-02,  1.6D-01,  6.7D-07, r^2= 2.2D+01
   Bfn.  Coefficient  Atom+Function         Bfn.  Coefficient  Atom+Function  
  ----- ------------  ---------------      ----- ------------  ---------------
    63      3.390953   2 C  pz              247     -3.391053   6 C  pz        
   109     -3.362395   3 C  pz              201      3.362739   5 C  pz        
    60      0.696768   2 C  pz              244     -0.696798   6 C  pz        
   106     -0.636630   3 C  pz              198      0.636707   5 C  pz        
    77     -0.380234   2 C  d  1            215      0.361163   5 C  d  1      
 
 Vector   42  Occ=0.000000D+00  E= 1.089658D-01
              MO Center=  3.0D-02, -4.7D-01,  1.5D-05, r^2= 2.1D+01
   Bfn.  Coefficient  Atom+Function         Bfn.  Coefficient  Atom+Function  
  ----- ------------  ---------------      ----- ------------  ---------------
   155      5.322289   4 C  pz              109     -3.443190   3 C  pz        
   201     -3.442983   5 C  pz               17      2.511148   1 C  pz        
   152      0.983592   4 C  pz              106     -0.603399   3 C  pz        
   198     -0.603372   5 C  pz              167      0.569469   4 C  d -1      
    14      0.504713   1 C  pz               63     -0.475483   2 C  pz        
 
 Vector   43  Occ=0.000000D+00  E= 1.094999D-01
              MO Center=  2.9D-02, -4.5D-01,  1.6D-05, r^2= 2.7D+01
   Bfn.  Coefficient  Atom+Function         Bfn.  Coefficient  Atom+Function  
  ----- ------------  ---------------      ----- ------------  ---------------
   326      7.669221   9 H  s               154      7.056562   4 C  py        
   303     -6.474470   8 H  s               349     -6.474821  10 H  s         
   143     -5.606132   4 C  s               108     -4.429783   3 C  py        
   200     -4.184223   5 C  py               62     -4.156266   2 C  py        
   246     -4.136829   6 C  py                4      3.925566   1 C  s         
 
 Vector   44  Occ=0.000000D+00  E= 1.178165D-01
              MO Center= -4.1D-02,  6.5D-01, -6.4D-05, r^2= 1.4D+01
   Bfn.  Coefficient  Atom+Function         Bfn.  Coefficient  Atom+Function  
  ----- ------------  ---------------      ----- ------------  ---------------
    17      6.879886   1 C  pz               63     -6.023168   2 C  pz        
   247     -6.023004   6 C  pz              109      5.053145   3 C  pz        
   201      5.052972   5 C  pz              155     -4.823463   4 C  pz        
    14      1.235813   1 C  pz               60     -1.020556   2 C  pz        
   244     -1.020522   6 C  pz              106      0.892348   3 C  pz        
 
 Vector   45  Occ=0.000000D+00  E= 1.264080D-01
              MO Center= -1.8D-02,  2.9D-01, -3.4D-07, r^2= 2.5D+01
   Bfn.  Coefficient  Atom+Function         Bfn.  Coefficient  Atom+Function  
  ----- ------------  ---------------      ----- ------------  ---------------
    51      7.588303   2 C  s               235     -7.588173   6 C  s         
   107      7.204078   3 C  px              199      7.126901   5 C  px        
   245     -7.037138   6 C  px               61     -6.926850   2 C  px        
    15      6.444020   1 C  px               97     -6.193038   3 C  s         
   189      6.193117   5 C  s               153     -5.818341   4 C  px        
 
 Vector   46  Occ=0.000000D+00  E= 1.274499D-01
              MO Center= -1.2D-02,  1.9D-01,  8.2D-06, r^2= 2.6D+01
   Bfn.  Coefficient  Atom+Function         Bfn.  Coefficient  Atom+Function  
  ----- ------------  ---------------      ----- ------------  ---------------
   154     -8.032126   4 C  py               16      7.424945   1 C  py        
   108      6.889060   3 C  py               62     -6.576340   2 C  py        
   200      6.571205   5 C  py              246     -6.383474   6 C  py        
   326     -4.051496   9 H  s                 5      3.565252   1 C  s         
   303      3.164655   8 H  s               349      3.165022  10 H  s         
 
 Vector   47  Occ=0.000000D+00  E= 1.609552D-01
              MO Center= -8.5D-03,  1.4D-01,  9.5D-05, r^2= 1.7D+01
   Bfn.  Coefficient  Atom+Function         Bfn.  Coefficient  Atom+Function  
  ----- ------------  ---------------      ----- ------------  ---------------
    17      8.192829   1 C  pz               63     -8.004445   2 C  pz        
   247     -8.004561   6 C  pz              155     -7.856638   4 C  pz        
   109      7.771281   3 C  pz              201      7.771408   5 C  pz        
    60     -1.191956   2 C  pz              106      1.192821   3 C  pz        
   198      1.192840   5 C  pz              244     -1.191990   6 C  pz        
 
 Vector   48  Occ=0.000000D+00  E= 1.660216D-01
              MO Center= -8.9D-02,  1.4D+00, -1.7D-04, r^2= 2.2D+01
   Bfn.  Coefficient  Atom+Function         Bfn.  Coefficient  Atom+Function  
  ----- ------------  ---------------      ----- ------------  ---------------
     5     59.211760   1 C  s                51    -25.982011   2 C  s         
   143     25.964502   4 C  s               235    -25.982371   6 C  s         
    97    -14.417756   3 C  s               189    -14.417072   5 C  s         
   154      7.428901   4 C  py              245      6.814223   6 C  px        
    61     -6.399437   2 C  px              326      6.156442   9 H  s         
 
 Vector   49  Occ=0.000000D+00  E= 1.754197D-01
              MO Center=  2.5D-02, -3.9D-01,  5.6D-05, r^2= 1.1D+01
   Bfn.  Coefficient  Atom+Function         Bfn.  Coefficient  Atom+Function  
  ----- ------------  ---------------      ----- ------------  ---------------
   335      1.104487   9 H  pz              312      1.079188   8 H  pz        
   358      1.079136  10 H  pz              289      0.973158   7 H  pz        
   381      0.973113  11 H  pz               17      0.959712   1 C  pz        
    63     -0.885199   2 C  pz              247     -0.885168   6 C  pz        
   106     -0.842969   3 C  pz              198     -0.842912   5 C  pz        
 
 Vector   50  Occ=0.000000D+00  E= 1.864246D-01
              MO Center=  3.4D-02, -5.5D-01, -2.6D-05, r^2= 1.5D+01
   Bfn.  Coefficient  Atom+Function         Bfn.  Coefficient  Atom+Function  
  ----- ------------  ---------------      ----- ------------  ---------------
     5     15.509553   1 C  s                97     -7.273485   3 C  s         
   189     -7.273048   5 C  s                51     -4.474946   2 C  s         
   235     -4.474741   6 C  s               325      4.425649   9 H  s         
    62     -4.045209   2 C  py              154      3.980581   4 C  py        
   246     -3.823183   6 C  py              302      3.261113   8 H  s         
 
 Vector   51  Occ=0.000000D+00  E= 1.980397D-01
              MO Center= -3.0D-02,  4.7D-01, -9.1D-06, r^2= 2.3D+01
   Bfn.  Coefficient  Atom+Function         Bfn.  Coefficient  Atom+Function  
  ----- ------------  ---------------      ----- ------------  ---------------
    51     44.606420   2 C  s               235    -44.590050   6 C  s         
    97     25.196013   3 C  s               189    -25.200448   5 C  s         
    15     18.495945   1 C  px              153     17.066181   4 C  px        
   302    -14.009320   8 H  s               348     14.010766  10 H  s         
   200      9.225017   5 C  py              108     -8.513956   3 C  py        
 
 Vector   52  Occ=0.000000D+00  E= 1.984415D-01
              MO Center=  4.6D-02, -7.3D-01, -1.0D-04, r^2= 2.3D+01
   Bfn.  Coefficient  Atom+Function         Bfn.  Coefficient  Atom+Function  
  ----- ------------  ---------------      ----- ------------  ---------------
   143     61.320450   4 C  s                51    -34.523332   2 C  s         
   235    -34.544367   6 C  s               325    -16.863433   9 H  s         
    62     14.721685   2 C  py              246     14.448780   6 C  py        
   200     13.770130   5 C  py              108     12.557483   3 C  py        
     5    -11.579614   1 C  s               279     11.179249   7 H  s         
 
 Vector   53  Occ=0.000000D+00  E= 2.154380D-01
              MO Center=  8.8D-02, -1.4D+00,  3.6D-06, r^2= 1.5D+01
   Bfn.  Coefficient  Atom+Function         Bfn.  Coefficient  Atom+Function  
  ----- ------------  ---------------      ----- ------------  ---------------
    97     13.860103   3 C  s               189    -13.859609   5 C  s         
    96      6.548533   3 C  s               188     -6.548611   5 C  s         
   153      6.322925   4 C  px              279     -5.135927   7 H  s         
   371      5.135687  11 H  s               303      4.737262   8 H  s         
   349     -4.737000  10 H  s               246     -4.492484   6 C  py        
 
 Vector   54  Occ=0.000000D+00  E= 2.182735D-01
              MO Center=  1.8D-02, -2.8D-01, -6.3D-05, r^2= 1.5D+01
   Bfn.  Coefficient  Atom+Function         Bfn.  Coefficient  Atom+Function  
  ----- ------------  ---------------      ----- ------------  ---------------
   143     25.784508   4 C  s                51    -17.781038   2 C  s         
   235    -17.792452   6 C  s                 5     15.976843   1 C  s         
    16     -6.446831   1 C  py              325     -6.048426   9 H  s         
    62      4.840065   2 C  py              246      4.722760   6 C  py        
   279      3.739857   7 H  s               371      3.740439  11 H  s         
 
 Vector   55  Occ=0.000000D+00  E= 2.191127D-01
              MO Center=  5.3D-03, -8.4D-02, -7.9D-06, r^2= 1.5D+01
   Bfn.  Coefficient  Atom+Function         Bfn.  Coefficient  Atom+Function  
  ----- ------------  ---------------      ----- ------------  ---------------
    51     19.806309   2 C  s               235    -19.797041   6 C  s         
   108     -8.471532   3 C  py              200      8.113342   5 C  py        
    15      7.529903   1 C  px              302     -6.934502   8 H  s         
   348      6.934539  10 H  s               153      6.305367   4 C  px        
   246     -4.034553   6 C  py               62      3.898512   2 C  py        
 
 Vector   56  Occ=0.000000D+00  E= 2.301185D-01
              MO Center= -1.8D-02,  2.9D-01, -1.8D-05, r^2= 1.8D+01
   Bfn.  Coefficient  Atom+Function         Bfn.  Coefficient  Atom+Function  
  ----- ------------  ---------------      ----- ------------  ---------------
   199      4.914068   5 C  px              107      4.647872   3 C  px        
   153     -3.564850   4 C  px               50     -3.271236   2 C  s         
   234      3.270838   6 C  s               303      3.159253   8 H  s         
   349     -3.158600  10 H  s                15     -2.626338   1 C  px        
   108      2.424270   3 C  py               59      1.953280   2 C  py        
 
 Vector   57  Occ=0.000000D+00  E= 2.311968D-01
              MO Center= -5.9D-05,  1.0D-03,  2.9D-05, r^2= 1.6D+01
   Bfn.  Coefficient  Atom+Function         Bfn.  Coefficient  Atom+Function  
  ----- ------------  ---------------      ----- ------------  ---------------
   106      2.142245   3 C  pz              198     -2.142246   5 C  pz        
    60      2.046632   2 C  pz              244     -2.046599   6 C  pz        
   312     -1.817803   8 H  pz              358      1.817855  10 H  pz        
   289     -1.720199   7 H  pz              381      1.720151  11 H  pz        
   169     -1.379487   4 C  d  1             31     -1.246699   1 C  d  1      
 
 Vector   58  Occ=0.000000D+00  E= 2.354328D-01
              MO Center= -1.3D-02,  2.1D-01, -5.9D-05, r^2= 1.6D+01
   Bfn.  Coefficient  Atom+Function         Bfn.  Coefficient  Atom+Function  
  ----- ------------  ---------------      ----- ------------  ---------------
   143     14.934551   4 C  s                51    -10.475938   2 C  s         
   235    -10.466674   6 C  s               107     -8.189040   3 C  px        
   199      7.760137   5 C  px               61      5.430261   2 C  px        
   245     -5.308828   6 C  px              303     -4.418206   8 H  s         
   349     -4.419757  10 H  s                 5      4.072001   1 C  s         
 
 Vector   59  Occ=0.000000D+00  E= 2.365036D-01
              MO Center= -4.5D-03,  7.4D-02, -4.0D-06, r^2= 1.7D+01
   Bfn.  Coefficient  Atom+Function         Bfn.  Coefficient  Atom+Function  
  ----- ------------  ---------------      ----- ------------  ---------------
    97    -33.169769   3 C  s               189     33.170239   5 C  s         
    51     31.540011   2 C  s               235    -31.543889   6 C  s         
    96    -14.384267   3 C  s               188     14.383687   5 C  s         
   279     10.795367   7 H  s               371    -10.794358  11 H  s         
   302    -10.655169   8 H  s               348     10.655008  10 H  s         
 
 Vector   60  Occ=0.000000D+00  E= 2.434524D-01
              MO Center=  2.7D-03, -4.3D-02,  2.0D-04, r^2= 1.5D+01
   Bfn.  Coefficient  Atom+Function         Bfn.  Coefficient  Atom+Function  
  ----- ------------  ---------------      ----- ------------  ---------------
   152      3.413786   4 C  pz               14     -3.025951   1 C  pz        
   289      2.170837   7 H  pz              381      2.170848  11 H  pz        
   335     -2.124644   9 H  pz              261      2.001884   6 C  d  1      
    77     -1.987221   2 C  d  1             63     -1.598126   2 C  pz        
   247     -1.598052   6 C  pz              155      1.369720   4 C  pz        
 
 Vector   61  Occ=0.000000D+00  E= 2.594979D-01
              MO Center=  3.8D-02, -6.0D-01,  1.5D-05, r^2= 1.7D+01
   Bfn.  Coefficient  Atom+Function         Bfn.  Coefficient  Atom+Function  
  ----- ------------  ---------------      ----- ------------  ---------------
     5      8.705567   1 C  s               108     -6.643566   3 C  py        
   200     -6.054069   5 C  py              303     -5.178034   8 H  s         
   349     -5.177975  10 H  s               199      5.076968   5 C  px        
   197     -4.838258   5 C  py              143     -4.805425   4 C  s         
   105     -4.736428   3 C  py              154      4.356753   4 C  py        
 
 Vector   62  Occ=0.000000D+00  E= 2.620259D-01
              MO Center=  6.8D-02, -1.1D+00,  5.7D-06, r^2= 1.7D+01
   Bfn.  Coefficient  Atom+Function         Bfn.  Coefficient  Atom+Function  
  ----- ------------  ---------------      ----- ------------  ---------------
     5     18.962612   1 C  s               154     15.381366   4 C  py        
   143     15.152442   4 C  s                51    -14.562189   2 C  s         
   235    -14.563306   6 C  s               326      9.187897   9 H  s         
     4      6.019684   1 C  s               108     -4.778283   3 C  py        
    97     -4.661400   3 C  s               189     -4.660090   5 C  s         
 
 Vector   63  Occ=0.000000D+00  E= 2.676744D-01
              MO Center= -2.7D-02,  4.3D-01,  9.6D-07, r^2= 2.0D+01
   Bfn.  Coefficient  Atom+Function         Bfn.  Coefficient  Atom+Function  
  ----- ------------  ---------------      ----- ------------  ---------------
    51     20.194790   2 C  s               235    -20.194599   6 C  s         
    97    -11.909700   3 C  s               189     11.910051   5 C  s         
    61     11.014725   2 C  px              245     10.263781   6 C  px        
    96     -8.754017   3 C  s               188      8.754186   5 C  s         
   279      8.762953   7 H  s               371     -8.763182  11 H  s         
 
 Vector   64  Occ=0.000000D+00  E= 2.747979D-01
              MO Center= -1.5D-03,  2.3D-02, -7.3D-06, r^2= 1.4D+01
   Bfn.  Coefficient  Atom+Function         Bfn.  Coefficient  Atom+Function  
  ----- ------------  ---------------      ----- ------------  ---------------
   143      8.950079   4 C  s                 5      8.703367   1 C  s         
   154      5.768124   4 C  py              279     -5.654972   7 H  s         
   371     -5.654571  11 H  s               302     -4.649025   8 H  s         
   348     -4.648613  10 H  s               325     -4.357539   9 H  s         
    16     -4.033287   1 C  py              246      3.262517   6 C  py        
 
 Vector   65  Occ=0.000000D+00  E= 2.829800D-01
              MO Center= -1.2D-02,  1.8D-01, -4.7D-06, r^2= 1.6D+01
   Bfn.  Coefficient  Atom+Function         Bfn.  Coefficient  Atom+Function  
  ----- ------------  ---------------      ----- ------------  ---------------
    12      9.529524   1 C  px               97      8.895715   3 C  s         
   189     -8.895756   5 C  s               302      8.099518   8 H  s         
   348     -8.099113  10 H  s                51     -8.021828   2 C  s         
   235      8.021291   6 C  s               199      7.632673   5 C  px        
   107      7.160547   3 C  px              150      6.193341   4 C  px        
 
 Vector   66  Occ=0.000000D+00  E= 2.954375D-01
              MO Center= -3.3D-03,  5.2D-02, -1.1D-06, r^2= 1.6D+01
   Bfn.  Coefficient  Atom+Function         Bfn.  Coefficient  Atom+Function  
  ----- ------------  ---------------      ----- ------------  ---------------
    63      3.201122   2 C  pz              109     -3.188420   3 C  pz        
   201      3.188015   5 C  pz              247     -3.200898   6 C  pz        
   289     -2.279301   7 H  pz              381      2.279326  11 H  pz        
    60      2.256504   2 C  pz              244     -2.256527   6 C  pz        
   312      2.261601   8 H  pz              358     -2.261491  10 H  pz        
 
 Vector   67  Occ=0.000000D+00  E= 2.962828D-01
              MO Center= -6.0D-02,  9.6D-01, -1.5D-05, r^2= 1.4D+01
   Bfn.  Coefficient  Atom+Function         Bfn.  Coefficient  Atom+Function  
  ----- ------------  ---------------      ----- ------------  ---------------
     4     10.428470   1 C  s                59     -5.742576   2 C  py        
   243     -5.633806   6 C  py                5      5.526750   1 C  s         
   105     -5.528976   3 C  py              197     -5.140522   5 C  py        
    16      4.275783   1 C  py              279     -4.187341   7 H  s         
   371     -4.187093  11 H  s                13      3.914688   1 C  py        
 
 Vector   68  Occ=0.000000D+00  E= 3.080396D-01
              MO Center=  1.7D-02, -2.7D-01,  5.1D-05, r^2= 1.5D+01
   Bfn.  Coefficient  Atom+Function         Bfn.  Coefficient  Atom+Function  
  ----- ------------  ---------------      ----- ------------  ---------------
   155      5.178030   4 C  pz               14      4.363394   1 C  pz        
   109     -3.739405   3 C  pz              201     -3.739549   5 C  pz        
   335     -2.710437   9 H  pz               60     -2.049487   2 C  pz        
   244     -2.049381   6 C  pz              152      1.852465   4 C  pz        
    17      1.841755   1 C  pz               29     -1.719275   1 C  d -1      
 
 Vector   69  Occ=0.000000D+00  E= 3.150359D-01
              MO Center=  4.6D-03, -7.3D-02,  1.8D-06, r^2= 9.1D+00
   Bfn.  Coefficient  Atom+Function         Bfn.  Coefficient  Atom+Function  
  ----- ------------  ---------------      ----- ------------  ---------------
   261      1.252153   6 C  d  1             77      1.132484   2 C  d  1      
   169     -1.083673   4 C  d  1             75     -1.023175   2 C  d -1      
   259      0.872987   6 C  d -1            289     -0.720595   7 H  pz        
   381      0.720598  11 H  pz                5     -0.696411   1 C  s         
    31      0.633917   1 C  d  1              4      0.486546   1 C  s         
 
 Vector   70  Occ=0.000000D+00  E= 3.284739D-01
              MO Center=  3.9D-02, -6.2D-01,  7.4D-05, r^2= 1.5D+01
   Bfn.  Coefficient  Atom+Function         Bfn.  Coefficient  Atom+Function  
  ----- ------------  ---------------      ----- ------------  ---------------
   142     12.147248   4 C  s                96      8.715244   3 C  s         
   188      8.715404   5 C  s               151     -6.835863   4 C  py        
   325     -5.843387   9 H  s                 4     -5.234419   1 C  s         
   334     -5.006102   9 H  py                5      4.899764   1 C  s         
   302     -4.389155   8 H  s               348     -4.388594  10 H  s         
 
 Vector   71  Occ=0.000000D+00  E= 3.347583D-01
              MO Center= -1.6D-03,  2.5D-02, -3.6D-05, r^2= 7.7D+00
   Bfn.  Coefficient  Atom+Function         Bfn.  Coefficient  Atom+Function  
  ----- ------------  ---------------      ----- ------------  ---------------
   289      2.029006   7 H  pz              381      2.029156  11 H  pz        
   335      1.839502   9 H  pz               14     -1.772833   1 C  pz        
   155     -1.702754   4 C  pz               63     -1.544663   2 C  pz        
   247     -1.544681   6 C  pz               77     -1.512013   2 C  d  1      
   261      1.411901   6 C  d  1            106     -1.285576   3 C  pz        
 
 Vector   72  Occ=0.000000D+00  E= 3.433042D-01
              MO Center=  2.4D-02, -3.8D-01, -7.5D-07, r^2= 1.2D+01
   Bfn.  Coefficient  Atom+Function         Bfn.  Coefficient  Atom+Function  
  ----- ------------  ---------------      ----- ------------  ---------------
   169      3.281974   4 C  d  1             31      2.696240   1 C  d  1      
   312     -2.471276   8 H  pz              358      2.471096  10 H  pz        
   143      2.245399   4 C  s               123      2.176065   3 C  d  1      
   215      2.135593   5 C  d  1            106     -1.790771   3 C  pz        
   198      1.790733   5 C  pz              289     -1.426249   7 H  pz        
 
 Vector   73  Occ=0.000000D+00  E= 3.449342D-01
              MO Center= -3.5D-02,  5.5D-01,  5.8D-05, r^2= 1.2D+01
   Bfn.  Coefficient  Atom+Function         Bfn.  Coefficient  Atom+Function  
  ----- ------------  ---------------      ----- ------------  ---------------
   143     23.599837   4 C  s               325    -12.971192   9 H  s         
   279     11.873321   7 H  s               371     11.876633  11 H  s         
    51    -11.694976   2 C  s               235    -11.703134   6 C  s         
     5     -7.716850   1 C  s               197     -6.887969   5 C  py        
   105     -6.770016   3 C  py              243     -5.997915   6 C  py        
 
 Vector   74  Occ=0.000000D+00  E= 3.478160D-01
              MO Center=  9.9D-03, -1.6D-01,  4.9D-06, r^2= 1.2D+01
   Bfn.  Coefficient  Atom+Function         Bfn.  Coefficient  Atom+Function  
  ----- ------------  ---------------      ----- ------------  ---------------
    51     21.028919   2 C  s               235    -21.025743   6 C  s         
   302    -11.895066   8 H  s               348     11.897007  10 H  s         
    97     10.861031   3 C  s               189    -10.862867   5 C  s         
   279     -9.685790   7 H  s               371      9.680860  11 H  s         
    12     -8.047673   1 C  px              150     -6.979418   4 C  px        
 
 Vector   75  Occ=0.000000D+00  E= 3.481656D-01
              MO Center=  3.3D-02, -5.2D-01, -6.9D-05, r^2= 1.3D+01
   Bfn.  Coefficient  Atom+Function         Bfn.  Coefficient  Atom+Function  
  ----- ------------  ---------------      ----- ------------  ---------------
   155     -3.951352   4 C  pz               17      3.764371   1 C  pz        
   109      3.544921   3 C  pz              201      3.544996   5 C  pz        
    63     -3.435646   2 C  pz              247     -3.435727   6 C  pz        
   152     -2.975581   4 C  pz               51     -2.447674   2 C  s         
   235      2.449572   6 C  s               213     -2.294019   5 C  d -1      
 
 Vector   76  Occ=0.000000D+00  E= 3.527433D-01
              MO Center=  3.3D-02, -5.3D-01, -6.5D-05, r^2= 1.4D+01
   Bfn.  Coefficient  Atom+Function         Bfn.  Coefficient  Atom+Function  
  ----- ------------  ---------------      ----- ------------  ---------------
    17      6.394073   1 C  pz               63     -5.862467   2 C  pz        
   247     -5.862521   6 C  pz              109      5.128817   3 C  pz        
   201      5.128841   5 C  pz              155     -4.856075   4 C  pz        
   335      3.961151   9 H  pz               14      3.794863   1 C  pz        
   167      3.077799   4 C  d -1             60     -2.684079   2 C  pz        
 
 Vector   77  Occ=0.000000D+00  E= 3.546386D-01
              MO Center= -2.0D-02,  3.1D-01, -5.0D-05, r^2= 1.5D+01
   Bfn.  Coefficient  Atom+Function         Bfn.  Coefficient  Atom+Function  
  ----- ------------  ---------------      ----- ------------  ---------------
     5     31.343892   1 C  s               143     15.878896   4 C  s         
    51    -15.734368   2 C  s               235    -15.732194   6 C  s         
   151    -11.071460   4 C  py              196     -7.595653   5 C  px        
    50      7.381713   2 C  s               234      7.381683   6 C  s         
    13      7.272023   1 C  py              104      7.155052   3 C  px        
 
 Vector   78  Occ=0.000000D+00  E= 3.599083D-01
              MO Center= -4.7D-02,  7.5D-01,  1.8D-06, r^2= 1.3D+01
   Bfn.  Coefficient  Atom+Function         Bfn.  Coefficient  Atom+Function  
  ----- ------------  ---------------      ----- ------------  ---------------
   289      3.405864   7 H  pz              381     -3.405936  11 H  pz        
    60      3.157750   2 C  pz              244     -3.157769   6 C  pz        
    77     -3.082984   2 C  d  1            121     -3.088191   3 C  d -1      
   259      3.025634   6 C  d -1            213      2.786925   5 C  d -1      
   312     -2.762385   8 H  pz              358      2.762220  10 H  pz        
 
 Vector   79  Occ=0.000000D+00  E= 3.685621D-01
              MO Center=  3.6D-02, -5.7D-01,  2.7D-05, r^2= 1.3D+01
   Bfn.  Coefficient  Atom+Function         Bfn.  Coefficient  Atom+Function  
  ----- ------------  ---------------      ----- ------------  ---------------
    96     10.728574   3 C  s               188     10.727432   5 C  s         
   104     -8.499136   3 C  px              196      8.489437   5 C  px        
   142     -7.533054   4 C  s                 5      7.225129   1 C  s         
   212      5.397075   5 C  d -2            258      5.320088   6 C  d -2      
   120     -5.225760   3 C  d -2            242     -5.088391   6 C  px        
 
 Vector   80  Occ=0.000000D+00  E= 3.720966D-01
              MO Center=  2.0D-02, -3.1D-01,  1.6D-06, r^2= 1.3D+01
   Bfn.  Coefficient  Atom+Function         Bfn.  Coefficient  Atom+Function  
  ----- ------------  ---------------      ----- ------------  ---------------
    97      9.835616   3 C  s               189     -9.834354   5 C  s         
    50      9.029212   2 C  s               234     -9.028612   6 C  s         
   279     -5.479761   7 H  s               371      5.482066  11 H  s         
   357      5.245402  10 H  py              311     -5.124427   8 H  py        
   212     -4.882763   5 C  d -2             51     -4.818423   2 C  s         
 
 Vector   81  Occ=0.000000D+00  E= 3.819057D-01
              MO Center=  3.6D-02, -5.7D-01, -4.6D-06, r^2= 1.6D+01
   Bfn.  Coefficient  Atom+Function         Bfn.  Coefficient  Atom+Function  
  ----- ------------  ---------------      ----- ------------  ---------------
   166      9.081972   4 C  d -2            333      7.118166   9 H  px        
   150     -6.666063   4 C  px              216     -6.559559   5 C  d  2      
   124      6.104499   3 C  d  2            279      5.864356   7 H  s         
   371     -5.864585  11 H  s               310      5.086836   8 H  px        
   356      5.023161  10 H  px               96     -4.803754   3 C  s         
 
 Vector   82  Occ=0.000000D+00  E= 3.932647D-01
              MO Center= -2.9D-02,  4.6D-01,  2.2D-06, r^2= 1.5D+01
   Bfn.  Coefficient  Atom+Function         Bfn.  Coefficient  Atom+Function  
  ----- ------------  ---------------      ----- ------------  ---------------
    12     12.180523   1 C  px               51    -11.048481   2 C  s         
   235     11.050015   6 C  s                78     -9.086815   2 C  d  2      
   262      8.758289   6 C  d  2             15     -6.828152   1 C  px        
   216      6.672085   5 C  d  2            153     -5.861546   4 C  px        
   124     -5.830272   3 C  d  2            379     -5.815567  11 H  px        
 
 Vector   83  Occ=0.000000D+00  E= 3.960294D-01
              MO Center= -5.2D-02,  8.3D-01, -1.8D-05, r^2= 1.2D+01
   Bfn.  Coefficient  Atom+Function         Bfn.  Coefficient  Atom+Function  
  ----- ------------  ---------------      ----- ------------  ---------------
   152     -7.530561   4 C  pz              106      7.336281   3 C  pz        
   198      7.336443   5 C  pz               60     -6.479738   2 C  pz        
   244     -6.479822   6 C  pz              167     -6.333740   4 C  d -1      
   215      5.117774   5 C  d  1            123     -4.711520   3 C  d  1      
    14      4.573251   1 C  pz              259      4.026472   6 C  d -1      
 
 Vector   84  Occ=0.000000D+00  E= 4.017356D-01
              MO Center= -3.3D-02,  5.2D-01,  6.4D-05, r^2= 1.5D+01
   Bfn.  Coefficient  Atom+Function         Bfn.  Coefficient  Atom+Function  
  ----- ------------  ---------------      ----- ------------  ---------------
     5     51.746856   1 C  s                51    -19.779256   2 C  s         
   235    -19.775503   6 C  s                97    -17.391437   3 C  s         
   189    -17.388781   5 C  s               143     11.662922   4 C  s         
   142    -10.268143   4 C  s                 4     -9.670047   1 C  s         
    50     -7.941156   2 C  s               234     -7.942151   6 C  s         
 
 Vector   85  Occ=0.000000D+00  E= 4.053093D-01
              MO Center= -5.4D-03,  8.6D-02, -6.2D-05, r^2= 1.3D+01
   Bfn.  Coefficient  Atom+Function         Bfn.  Coefficient  Atom+Function  
  ----- ------------  ---------------      ----- ------------  ---------------
[...]
     Occ.   21 alpha a   ---  Virt.   38 alpha a    0.12132 X
     Occ.   13 beta  a   ---  Virt.   21 beta  a   -0.05596 X
     Occ.   15 beta  a   ---  Virt.   21 beta  a   -0.10236 X
     Occ.   19 beta  a   ---  Virt.   24 beta  a   -0.22080 X
     Occ.   20 beta  a   ---  Virt.   22 beta  a    0.14453 X
  ----------------------------------------------------------------------------
  Root  27         a              0.251973190 a.u.                6.8565 eV 
  <S2> =   1.6619
  ----------------------------------------------------------------------------
     Transition Moments    X  0.00451   Y  0.00028   Z -0.24500
     Transition Moments   XX -0.00032  XY  0.00245  XZ  0.01065
     Transition Moments   YY  0.00026  YZ -0.16705  ZZ -0.00001
     Dipole Oscillator Strength                    0.0100865818
     Electric Quadrupole                           0.0000000024
     Magnetic Dipole                               0.0000000311
     Total Oscillator Strength                     0.0100866153
 
     Occ.   19 alpha a   ---  Virt.   26 alpha a   -0.98229 X
     Occ.   19 alpha a   ---  Virt.   35 alpha a    0.07115 X
     Occ.   19 alpha a   ---  Virt.   36 alpha a    0.07362 X
     Occ.   20 alpha a   ---  Virt.   25 alpha a   -0.11475 X
     Occ.   20 beta  a   ---  Virt.   26 beta  a   -0.05037 X
  ----------------------------------------------------------------------------
  Root  28         a              0.252622570 a.u.                6.8742 eV 
  <S2> =   1.8893
  ----------------------------------------------------------------------------
     Transition Moments    X  0.00071   Y -0.01147   Z -0.00006
     Transition Moments   XX -0.00319  XY  0.00235  XZ -0.39286
     Transition Moments   YY -0.04034  YZ -0.02479  ZZ -0.00295
     Dipole Oscillator Strength                    0.0000222544
     Electric Quadrupole                           0.0000000133
     Magnetic Dipole                               0.0000000096
     Total Oscillator Strength                     0.0000222773
 
     Occ.   19 alpha a   ---  Virt.   25 alpha a    0.24728 X
     Occ.   20 alpha a   ---  Virt.   26 alpha a    0.96028 X
     Occ.   20 alpha a   ---  Virt.   35 alpha a   -0.06154 X
     Occ.   20 alpha a   ---  Virt.   36 alpha a   -0.06547 X
     Occ.   19 beta  a   ---  Virt.   26 beta  a   -0.06490 X
  ----------------------------------------------------------------------------
  Root  29         a              0.253987840 a.u.                6.9114 eV 
  <S2> =   1.6184
  ----------------------------------------------------------------------------
     Transition Moments    X -0.00002   Y  0.00099   Z  0.00001
     Transition Moments   XX -0.00068  XY -0.00056  XZ  0.49371
     Transition Moments   YY  0.00817  YZ  0.03112  ZZ  0.00018
     Dipole Oscillator Strength                    0.0000001653
     Electric Quadrupole                           0.0000000214
     Magnetic Dipole                               0.0000000109
     Total Oscillator Strength                     0.0000001975
 
     Occ.   20 alpha a   ---  Virt.   26 alpha a   -0.06948 X
     Occ.   19 beta  a   ---  Virt.   26 beta  a   -0.98515 X
     Occ.   19 beta  a   ---  Virt.   35 beta  a    0.05784 X
     Occ.   19 beta  a   ---  Virt.   36 beta  a    0.07402 X
     Occ.   20 beta  a   ---  Virt.   25 beta  a   -0.09685 X
  ----------------------------------------------------------------------------
  Root  30         a              0.254756269 a.u.                6.9323 eV 
  <S2> =   0.7707
  ----------------------------------------------------------------------------
     Transition Moments    X -1.50337   Y -0.09504   Z -0.00083
     Transition Moments   XX -0.02426  XY  0.18970  XZ -0.00063
     Transition Moments   YY  0.02353  YZ  0.01021  ZZ -0.00006
     Dipole Oscillator Strength                    0.3853881751
     Electric Quadrupole                           0.0000000032
     Magnetic Dipole                               0.0000000194
     Total Oscillator Strength                     0.3853881978
 
     Occ.   19 alpha a   ---  Virt.   22 alpha a   -0.38010 X
     Occ.   19 alpha a   ---  Virt.   22 alpha a    0.05311 Y
     Occ.   20 alpha a   ---  Virt.   23 alpha a    0.42686 X
     Occ.   20 alpha a   ---  Virt.   23 alpha a   -0.05109 Y
     Occ.   20 alpha a   ---  Virt.   29 alpha a   -0.14083 X
     Occ.   21 alpha a   ---  Virt.   25 alpha a    0.07640 X
     Occ.   21 alpha a   ---  Virt.   27 alpha a   -0.38948 X
     Occ.   13 beta  a   ---  Virt.   21 beta  a    0.12801 X
     Occ.   15 beta  a   ---  Virt.   21 beta  a    0.27045 X
     Occ.   19 beta  a   ---  Virt.   24 beta  a    0.49863 X
     Occ.   19 beta  a   ---  Virt.   29 beta  a   -0.13915 X
     Occ.   20 beta  a   ---  Virt.   22 beta  a   -0.34839 X
     Occ.   20 beta  a   ---  Virt.   22 beta  a    0.05611 Y
  ----------------------------------------------------------------------------
  Root  31         a              0.255405041 a.u.                6.9499 eV 
  <S2> =   0.8014
  ----------------------------------------------------------------------------
     Transition Moments    X  0.04057   Y -0.63617   Z  0.00001
     Transition Moments   XX -0.65031  XY  0.07809  XZ  0.00375
     Transition Moments   YY -1.88532  YZ  0.00024  ZZ -0.14655
     Dipole Oscillator Strength                    0.0691915373
     Electric Quadrupole                           0.0000000716
     Magnetic Dipole                               0.0000000000
     Total Oscillator Strength                     0.0691916089
 
     Occ.   19 alpha a   ---  Virt.   23 alpha a    0.10546 X
     Occ.   20 alpha a   ---  Virt.   22 alpha a    0.11460 X
     Occ.   21 alpha a   ---  Virt.   26 alpha a    0.18447 X
     Occ.   21 alpha a   ---  Virt.   28 alpha a   -0.90978 X
     Occ.   21 alpha a   ---  Virt.   30 alpha a   -0.12846 X
     Occ.   21 alpha a   ---  Virt.   31 alpha a   -0.16274 X
     Occ.   21 alpha a   ---  Virt.   48 alpha a    0.05656 X
     Occ.   16 beta  a   ---  Virt.   21 beta  a    0.18855 X
     Occ.   19 beta  a   ---  Virt.   22 beta  a    0.10930 X
     Occ.   20 beta  a   ---  Virt.   24 beta  a    0.09635 X
  ----------------------------------------------------------------------------
  Root  32         a              0.260750665 a.u.                7.0954 eV 
  <S2> =   0.8002
  ----------------------------------------------------------------------------
     Transition Moments    X -0.00667   Y -0.00043   Z -0.09558
     Transition Moments   XX -0.00006  XY  0.00047  XZ  0.04440
     Transition Moments   YY  0.00005  YZ -0.70485  ZZ -0.00000
     Dipole Oscillator Strength                    0.0015957077
     Electric Quadrupole                           0.0000000471
     Magnetic Dipole                               0.0000000330
     Total Oscillator Strength                     0.0015957878
 
     Occ.   21 alpha a   ---  Virt.   29 alpha a    0.97945 X
     Occ.   21 alpha a   ---  Virt.   33 alpha a    0.17993 X
  ----------------------------------------------------------------------------
  Root  33         a              0.265400389 a.u.                7.2219 eV 
  <S2> =   1.7807
  ----------------------------------------------------------------------------
     Transition Moments    X -0.00002   Y  0.00032   Z  0.00000
     Transition Moments   XX  0.00536  XY  0.00021  XZ  0.54581
     Transition Moments   YY  0.00212  YZ  0.03439  ZZ -0.00175
     Dipole Oscillator Strength                    0.0000000177
     Electric Quadrupole                           0.0000000298
     Magnetic Dipole                               0.0000000006
     Total Oscillator Strength                     0.0000000480
 
     Occ.   20 beta  a   ---  Virt.   27 beta  a    0.99103 X
     Occ.   20 beta  a   ---  Virt.   38 beta  a   -0.09649 X
  ----------------------------------------------------------------------------
  Root  34         a              0.267188955 a.u.                7.2706 eV 
  <S2> =   0.8216
  ----------------------------------------------------------------------------
     Transition Moments    X  0.07576   Y -1.20074   Z -0.00000
     Transition Moments   XX  0.01886  XY -0.04278  XZ  0.00310
     Transition Moments   YY  0.69485  YZ  0.00020  ZZ  0.04599
     Dipole Oscillator Strength                    0.2578422785
     Electric Quadrupole                           0.0000000151
     Magnetic Dipole                               0.0000000000
     Total Oscillator Strength                     0.2578422936
 
     Occ.   17 alpha a   ---  Virt.   23 alpha a   -0.08607 X
     Occ.   19 alpha a   ---  Virt.   23 alpha a    0.30513 X
     Occ.   19 alpha a   ---  Virt.   29 alpha a    0.16159 X
     Occ.   20 alpha a   ---  Virt.   22 alpha a    0.22282 X
     Occ.   21 alpha a   ---  Virt.   28 alpha a    0.30116 X
     Occ.   21 alpha a   ---  Virt.   30 alpha a   -0.42773 X
     Occ.   21 alpha a   ---  Virt.   31 alpha a    0.08028 X
     Occ.   14 beta  a   ---  Virt.   21 beta  a   -0.08798 X
     Occ.   16 beta  a   ---  Virt.   21 beta  a    0.50156 X
     Occ.   19 beta  a   ---  Virt.   22 beta  a    0.22349 X
     Occ.   20 beta  a   ---  Virt.   24 beta  a    0.30739 X
     Occ.   20 beta  a   ---  Virt.   29 beta  a    0.34424 X
  ----------------------------------------------------------------------------
  Root  35         a              0.270809777 a.u.                7.3691 eV 
  <S2> =   2.7052
  ----------------------------------------------------------------------------
     Transition Moments    X -0.00048   Y -0.00003   Z  0.00949
     Transition Moments   XX  0.00036  XY -0.00291  XZ -0.00954
     Transition Moments   YY -0.00036  YZ  0.15083  ZZ -0.00000
     Dipole Oscillator Strength                    0.0000162970
     Electric Quadrupole                           0.0000000024
     Magnetic Dipole                               0.0000000000
     Total Oscillator Strength                     0.0000162995
 
     Occ.   20 alpha a   ---  Virt.   27 alpha a   -0.79600 X
     Occ.   20 alpha a   ---  Virt.   38 alpha a    0.08787 X
     Occ.   19 beta  a   ---  Virt.   27 beta  a    0.57727 X
     Occ.   19 beta  a   ---  Virt.   38 beta  a   -0.06825 X
     Occ.   20 beta  a   ---  Virt.   28 beta  a    0.05392 X
     Occ.   20 beta  a   ---  Virt.   30 beta  a    0.06119 X
  ----------------------------------------------------------------------------
  Root  36         a              0.271252400 a.u.                7.3812 eV 
  <S2> =   2.7406
  ----------------------------------------------------------------------------
     Transition Moments    X -0.04869   Y -0.00302   Z -0.00112
     Transition Moments   XX -0.00378  XY  0.02866  XZ  0.00063
     Transition Moments   YY  0.00375  YZ -0.00992  ZZ -0.00004
     Dipole Oscillator Strength                    0.0004306399
     Electric Quadrupole                           0.0000000001
     Magnetic Dipole                               0.0000000018
     Total Oscillator Strength                     0.0004306418
 
     Occ.   17 alpha a   ---  Virt.   22 alpha a   -0.59747 X
     Occ.   17 alpha a   ---  Virt.   41 alpha a    0.05236 X
     Occ.   19 alpha a   ---  Virt.   32 alpha a    0.08377 X
     Occ.   20 alpha a   ---  Virt.   29 alpha a   -0.16413 X
     Occ.   20 alpha a   ---  Virt.   44 alpha a    0.22713 X
     Occ.   20 alpha a   ---  Virt.   47 alpha a   -0.17395 X
     Occ.   17 beta  a   ---  Virt.   22 beta  a    0.64419 X
     Occ.   17 beta  a   ---  Virt.   41 beta  a   -0.05429 X
     Occ.   19 beta  a   ---  Virt.   29 beta  a    0.10199 X
     Occ.   19 beta  a   ---  Virt.   44 beta  a   -0.20051 X
     Occ.   19 beta  a   ---  Virt.   47 beta  a    0.16651 X
     Occ.   20 beta  a   ---  Virt.   31 beta  a    0.10161 X
  ----------------------------------------------------------------------------
  Root  37         a              0.271754103 a.u.                7.3948 eV 
  <S2> =   1.0518
  ----------------------------------------------------------------------------
     Transition Moments    X  0.03231   Y -0.51248   Z  0.00002
     Transition Moments   XX  1.05219  XY  0.11436  XZ -0.00358
     Transition Moments   YY -0.75550  YZ  0.00041  ZZ  0.23965
     Dipole Oscillator Strength                    0.0477702192
     Electric Quadrupole                           0.0000000890
     Magnetic Dipole                               0.0000000001
     Total Oscillator Strength                     0.0477703083
 
     Occ.   17 alpha a   ---  Virt.   23 alpha a   -0.06253 X
     Occ.   19 alpha a   ---  Virt.   23 alpha a    0.09117 X
     Occ.   21 alpha a   ---  Virt.   30 alpha a    0.79733 X
     Occ.   21 alpha a   ---  Virt.   31 alpha a   -0.20551 X
     Occ.   21 alpha a   ---  Virt.   35 alpha a    0.07436 X
     Occ.   21 alpha a   ---  Virt.   40 alpha a   -0.05669 X
     Occ.   14 beta  a   ---  Virt.   21 beta  a   -0.06323 X
     Occ.   16 beta  a   ---  Virt.   21 beta  a    0.18861 X
     Occ.   19 beta  a   ---  Virt.   22 beta  a    0.05850 X
     Occ.   20 beta  a   ---  Virt.   24 beta  a    0.09594 X
     Occ.   20 beta  a   ---  Virt.   29 beta  a    0.48458 X
  ----------------------------------------------------------------------------
  Root  38         a              0.271808561 a.u.                7.3963 eV 
  <S2> =   0.8291
  ----------------------------------------------------------------------------
     Transition Moments    X -0.00209   Y -0.00048   Z -0.02489
     Transition Moments   XX  0.00061  XY  0.00102  XZ  0.05510
     Transition Moments   YY -0.00042  YZ -0.87277  ZZ  0.00017
     Dipole Oscillator Strength                    0.0001130808
     Electric Quadrupole                           0.0000000818
     Magnetic Dipole                               0.0000000038
     Total Oscillator Strength                     0.0001131664
 
     Occ.   20 alpha a   ---  Virt.   27 alpha a    0.57428 X
     Occ.   19 beta  a   ---  Virt.   27 beta  a    0.80010 X
     Occ.   19 beta  a   ---  Virt.   38 beta  a   -0.07506 X
     Occ.   20 beta  a   ---  Virt.   28 beta  a   -0.12849 X
  ----------------------------------------------------------------------------
  Root  39         a              0.272284976 a.u.                7.4093 eV 
  <S2> =   1.7261
  ----------------------------------------------------------------------------
     Transition Moments    X -0.00019   Y  0.00307   Z  0.00002
     Transition Moments   XX -0.00391  XY -0.00075  XZ  0.54908
     Transition Moments   YY  0.00809  YZ  0.03488  ZZ -0.00410
     Dipole Oscillator Strength                    0.0000017227
     Electric Quadrupole                           0.0000000325
     Magnetic Dipole                               0.0000000013
     Total Oscillator Strength                     0.0000017565
 
     Occ.   19 alpha a   ---  Virt.   27 alpha a    0.99026 X
     Occ.   19 alpha a   ---  Virt.   38 alpha a   -0.09593 X
  ----------------------------------------------------------------------------
  Root  40         a              0.272509406 a.u.                7.4154 eV 
  <S2> =   1.9618
  ----------------------------------------------------------------------------
     Transition Moments    X -0.00004   Y  0.00002   Z  0.04148
     Transition Moments   XX -0.00011  XY  0.00056  XZ -0.02784
     Transition Moments   YY  0.00009  YZ  0.44000  ZZ -0.00001
     Dipole Oscillator Strength                    0.0003125606
     Electric Quadrupole                           0.0000000209
     Magnetic Dipole                               0.0000000053
     Total Oscillator Strength                     0.0003125868
 
     Occ.   19 alpha a   ---  Virt.   28 alpha a   -0.11707 X
     Occ.   20 alpha a   ---  Virt.   27 alpha a    0.12672 X
     Occ.   17 beta  a   ---  Virt.   21 beta  a   -0.05506 X
     Occ.   19 beta  a   ---  Virt.   27 beta  a    0.06775 X
     Occ.   20 beta  a   ---  Virt.   28 beta  a    0.96948 X
     Occ.   20 beta  a   ---  Virt.   30 beta  a    0.05585 X
     Occ.   20 beta  a   ---  Virt.   32 beta  a    0.07454 X
     Occ.   20 beta  a   ---  Virt.   43 beta  a    0.08100 X
 
              Target root =      1
          Target symmetry = none
      Ground state energy =   -231.646325809568
        Excitation energy =      0.106293712918
     Excited state energy =   -231.540032096650
 
  stored tddft:energy   -231.540032096650     

 Task  times  cpu:     3629.5s     wall:     3753.8s
 
 
                                NWChem Input Module
                                -------------------
 
 
 Summary of allocated global arrays
-----------------------------------
  No active global arrays



                         GA Statistics for process    0
                         ------------------------------

       create   destroy   get      put      acc     scatter   gather  read&inc
calls: 9555     9555     1.05e+07 4.05e+06 4.00e+06 5660        0      379     
number of processes/call 1.30e+00 1.75e+00 1.95e+00 0.00e+00 0.00e+00
bytes total:             9.63e+10 1.09e+10 1.13e+11 6.26e+04 0.00e+00 3.03e+03
bytes remote:            7.23e+10 1.10e+09 1.08e+11 0.00e+00 0.00e+00 0.00e+00
Max memory consumed for GA by this process: 205086464 bytes
 
MA_summarize_allocated_blocks: starting scan ...
MA_summarize_allocated_blocks: scan completed: 0 heap blocks, 0 stack blocks
MA usage statistics:

	allocation statistics:
					      heap	     stack
					      ----	     -----
	current number of blocks	         0	         0
	maximum number of blocks	        20	        52
	current total bytes		         0	         0
	maximum total bytes		   1166000	  68276408
	maximum total K-bytes		      1166	     68277
	maximum total M-bytes		         2	        69
 
 
                                     CITATION
                                     --------
                Please cite the following reference when publishing
                           results obtained with NWChem:
 
                 M. Valiev, E.J. Bylaska, N. Govind, K. Kowalski,
              T.P. Straatsma, H.J.J. van Dam, D. Wang, J. Nieplocha,
                        E. Apra, T.L. Windus, W.A. de Jong
                 "NWChem: a comprehensive and scalable open-source
                  solution for large scale molecular simulations"
                      Comput. Phys. Commun. 181, 1477 (2010)
                           doi:10.1016/j.cpc.2010.04.018
 
                                      AUTHORS
                                      -------
          E. Apra, E. J. Bylaska, W. A. de Jong, N. Govind, K. Kowalski,
       T. P. Straatsma, M. Valiev, H. J. J. van Dam, D. Wang, T. L. Windus,
        J. Hammond, J. Autschbach, K. Bhaskaran-Nair, J. Brabec, K. Lopata,
    S. A. Fischer, S. Krishnamoorthy, M. Jacquelin, W. Ma, M. Klemm, O. Villa,
      Y. Chen, V. Anisimov, F. Aquino, S. Hirata, M. T. Hackler, V. Konjkov,
            D. Mejia-Rodriguez, T. Risthaus, M. Malagoli, A. Marenich,
   A. Otero-de-la-Roza, J. Mullin, P. Nichols, R. Peverati, J. Pittner, Y. Zhao,
        P.-D. Fan, A. Fonari, M. J. Williamson, R. J. Harrison, J. R. Rehr,
      M. Dupuis, D. Silverstein, D. M. A. Smith, J. Nieplocha, V. Tipparaju,
    M. Krishnan, B. E. Van Kuiken, A. Vazquez-Mayagoitia, L. Jensen, M. Swart,
      Q. Wu, T. Van Voorhis, A. A. Auer, M. Nooijen, L. D. Crosby, E. Brown,
      G. Cisneros, G. I. Fann, H. Fruchtl, J. Garza, K. Hirao, R. A. Kendall,
      J. A. Nichols, K. Tsemekhman, K. Wolinski, J. Anchell, D. E. Bernholdt,
      P. Borowski, T. Clark, D. Clerc, H. Dachsel, M. J. O. Deegan, K. Dyall,
    D. Elwood, E. Glendening, M. Gutowski, A. C. Hess, J. Jaffe, B. G. Johnson,
     J. Ju, R. Kobayashi, R. Kutteh, Z. Lin, R. Littlefield, X. Long, B. Meng,
      T. Nakajima, S. Niu, L. Pollack, M. Rosing, K. Glaesemann, G. Sandrone,
      M. Stave, H. Taylor, G. Thomas, J. H. van Lenthe, A. T. Wong, Z. Zhang.

 Total times  cpu:     3629.5s     wall:     3754.6s
