 argument  1 = /storage/home/j/jbb5516/normalModes/mode423.91-m.nw
 


============================== echo of input deck ==============================
echo
start

title "None"

geometry
C    -0.08747224    1.38830409    0.00177523
C    -1.26735482    0.69112092   -0.00065262
C    -1.16733630   -0.70470852   -0.00065272
C     0.08291598   -1.31598916    0.00128338
C     1.24655610   -0.55261762   -0.00065261
C     1.17058620    0.84472727   -0.00065265
H    -2.23189055    1.18090100   -0.00206554
H    -2.06748412   -1.30603725   -0.00184347
H     0.15092404   -2.39537432    0.00248390
H     2.21506130   -1.03620839   -0.00184361
H     2.06601969    1.45169726   -0.00206614
symmetry c1
end

basis spherical
 * library "aug-cc-pvtz"
end

dft
 direct
 mult 2
 iterations 500
 xc b3lyp
end

tddft
 nroots 40
 notriplet
 algorithm 1
end
task tddft energy
================================================================================


                                         
                                         
 
 
              Northwest Computational Chemistry Package (NWChem) 6.8
              ------------------------------------------------------
 
 
                    Environmental Molecular Sciences Laboratory
                       Pacific Northwest National Laboratory
                                Richland, WA 99352
 
                              Copyright (c) 1994-2017
                       Pacific Northwest National Laboratory
                            Battelle Memorial Institute
 
             NWChem is an open-source computational chemistry package
                        distributed under the terms of the
                      Educational Community License (ECL) 2.0
             A copy of the license is included with this distribution
                              in the LICENSE.TXT file
 
                                  ACKNOWLEDGMENT
                                  --------------

            This software and its documentation were developed at the
            EMSL at Pacific Northwest National Laboratory, a multiprogram
            national laboratory, operated for the U.S. Department of Energy
            by Battelle under Contract Number DE-AC05-76RL01830. Support
            for this work was provided by the Department of Energy Office
            of Biological and Environmental Research, Office of Basic
            Energy Sciences, and the Office of Advanced Scientific Computing.


           Job information
           ---------------

    hostname        = comp-sc-0112.acib.production.int.aci.ics.psu.edu
    program         = /gpfs/group/lxj18/default/jeffprograms/nwchem-6.8.1/bin/LINUX64/nwchem
    date            = Sun Sep 20 18:06:05 2020

    compiled        = Wed_Oct_03_14:08:39_2018
    source          = /gpfs/group/lxj18/default/jeffprograms/nwchem-6.8.1
    nwchem branch   = 6.8.1
    nwchem revision = v6.8-143-gdb0d964
    ga revision     = 5.6.5
    use scalapack   = F
    input           = /storage/home/j/jbb5516/normalModes/mode423.91-m.nw
    prefix          = mode423.91-m.
    data base       = ./mode423.91-m.db
    status          = startup
    nproc           =       20
    time left       =     -1s



           Memory information
           ------------------

    heap     =   13107198 doubles =    100.0 Mbytes
    stack    =   13107195 doubles =    100.0 Mbytes
    global   =   26214400 doubles =    200.0 Mbytes (distinct from heap & stack)
    total    =   52428793 doubles =    400.0 Mbytes
    verify   = yes
    hardfail = no 


           Directory information
           ---------------------
 
  0 permanent = .
  0 scratch   = .
 
 
 
 
                                NWChem Input Module
                                -------------------
 
 
                                       None
                                       ----

 Scaling coordinates for geometry "geometry" by  1.889725989
 (inverse scale =  0.529177249)

 Turning off AUTOSYM since
 SYMMETRY directive was detected!
 

          ------
          auto-z
          ------
 
 
                             Geometry "geometry" -> ""
                             -------------------------
 
 Output coordinates in angstroms (scale by  1.889725989 to convert to a.u.)
 
  No.       Tag          Charge          X              Y              Z
 ---- ---------------- ---------- -------------- -------------- --------------
    1 C                    6.0000    -0.08747224     1.38830409     0.00183979
    2 C                    6.0000    -1.26735482     0.69112092    -0.00058806
    3 C                    6.0000    -1.16733630    -0.70470852    -0.00058816
    4 C                    6.0000     0.08291598    -1.31598916     0.00134794
    5 C                    6.0000     1.24655610    -0.55261762    -0.00058805
    6 C                    6.0000     1.17058620     0.84472727    -0.00058809
    7 H                    1.0000    -2.23189055     1.18090100    -0.00200098
    8 H                    1.0000    -2.06748412    -1.30603725    -0.00177891
    9 H                    1.0000     0.15092404    -2.39537432     0.00254846
   10 H                    1.0000     2.21506130    -1.03620839    -0.00177905
   11 H                    1.0000     2.06601969     1.45169726    -0.00200158
 
      Atomic Mass 
      ----------- 
 
      C                 12.000000
      H                  1.007825
 

 Effective nuclear repulsion energy (a.u.)     195.0639025538

            Nuclear Dipole moment (a.u.) 
            ----------------------------
        X                 Y               Z
 ---------------- ---------------- ----------------
    -0.0000000000     0.0000000000    -0.0000000000
 


                                Z-matrix (autoz)
                                -------- 

 Units are Angstrom for bonds and degrees for angles
 
      Type          Name      I     J     K     L     M      Value
      ----------- --------  ----- ----- ----- ----- ----- ----------
    1 Stretch                  1     2                       1.37047
    2 Stretch                  1     6                       1.37047
    3 Stretch                  2     3                       1.39941
    4 Stretch                  2     7                       1.08177
    5 Stretch                  3     4                       1.39169
    6 Stretch                  3     8                       1.08253
    7 Stretch                  4     5                       1.39169
    8 Stretch                  4     9                       1.08153
    9 Stretch                  5     6                       1.39941
   10 Stretch                  5    10                       1.08253
   11 Stretch                  6    11                       1.08177
   12 Bend                     1     2     3               116.47992
   13 Bend                     1     2     7               122.50063
   14 Bend                     1     6     5               116.47992
   15 Bend                     1     6    11               122.50066
   16 Bend                     2     1     6               126.05313
   17 Bend                     2     3     4               120.15371
   18 Bend                     2     3     8               119.64568
   19 Bend                     3     2     7               121.01944
   20 Bend                     3     4     5               120.67891
   21 Bend                     3     4     9               119.66048
   22 Bend                     4     3     8               120.20060
   23 Bend                     4     5     6               120.15370
   24 Bend                     4     5    10               120.20064
   25 Bend                     5     4     9               119.66051
   26 Bend                     5     6    11               121.01942
   27 Bend                     6     5    10               119.64565
   28 Torsion                  1     2     3     4          -0.02121
   29 Torsion                  1     2     3     8         179.95912
   30 Torsion                  1     6     5     4           0.02122
   31 Torsion                  1     6     5    10        -179.95913
   32 Torsion                  2     1     6     5          -0.25000
   33 Torsion                  2     1     6    11         179.77646
   34 Torsion                  2     3     4     5          -0.18627
   35 Torsion                  2     3     4     9         179.92589
   36 Torsion                  3     2     1     6           0.25000
   37 Torsion                  3     4     5     6           0.18627
   38 Torsion                  3     4     5    10        -179.83349
   39 Torsion                  4     3     2     7        -179.99514
   40 Torsion                  4     5     6    11         179.99518
   41 Torsion                  5     4     3     8         179.83351
   42 Torsion                  6     1     2     7        -179.77649
   43 Torsion                  6     5     4     9        -179.92590
   44 Torsion                  7     2     3     8          -0.01481
   45 Torsion                  8     3     4     9          -0.05433
   46 Torsion                  9     4     5    10           0.05435
   47 Torsion                 10     5     6    11           0.01483
 
 
            XYZ format geometry
            -------------------
    11
 geometry
 C                    -0.08747224     1.38830409     0.00183979
 C                    -1.26735482     0.69112092    -0.00058806
 C                    -1.16733630    -0.70470852    -0.00058816
 C                     0.08291598    -1.31598916     0.00134794
 C                     1.24655610    -0.55261762    -0.00058805
 C                     1.17058620     0.84472727    -0.00058809
 H                    -2.23189055     1.18090100    -0.00200098
 H                    -2.06748412    -1.30603725    -0.00177891
 H                     0.15092404    -2.39537432     0.00254846
 H                     2.21506130    -1.03620839    -0.00177905
 H                     2.06601969     1.45169726    -0.00200158
 
 ==============================================================================
                                internuclear distances
 ------------------------------------------------------------------------------
       center one      |      center two      | atomic units |  angstroms
 ------------------------------------------------------------------------------
    2 C                |   1 C                |     2.58982  |     1.37047
    3 C                |   2 C                |     2.64450  |     1.39941
    4 C                |   3 C                |     2.62991  |     1.39169
    5 C                |   4 C                |     2.62991  |     1.39169
    6 C                |   1 C                |     2.58982  |     1.37047
    6 C                |   5 C                |     2.64450  |     1.39941
    7 H                |   2 C                |     2.04424  |     1.08177
    8 H                |   3 C                |     2.04568  |     1.08253
    9 H                |   4 C                |     2.04379  |     1.08153
   10 H                |   5 C                |     2.04568  |     1.08253
   11 H                |   6 C                |     2.04424  |     1.08177
 ------------------------------------------------------------------------------
                         number of included internuclear distances:         11
 ==============================================================================



 ==============================================================================
                                 internuclear angles
 ------------------------------------------------------------------------------
        center 1       |       center 2       |       center 3       |  degrees
 ------------------------------------------------------------------------------
    2 C                |   1 C                |   6 C                |   126.05
    1 C                |   2 C                |   3 C                |   116.48
    1 C                |   2 C                |   7 H                |   122.50
    3 C                |   2 C                |   7 H                |   121.02
    2 C                |   3 C                |   4 C                |   120.15
    2 C                |   3 C                |   8 H                |   119.65
    4 C                |   3 C                |   8 H                |   120.20
    3 C                |   4 C                |   5 C                |   120.68
    3 C                |   4 C                |   9 H                |   119.66
    5 C                |   4 C                |   9 H                |   119.66
    4 C                |   5 C                |   6 C                |   120.15
    4 C                |   5 C                |  10 H                |   120.20
    6 C                |   5 C                |  10 H                |   119.65
    1 C                |   6 C                |   5 C                |   116.48
    1 C                |   6 C                |  11 H                |   122.50
    5 C                |   6 C                |  11 H                |   121.02
 ------------------------------------------------------------------------------
                            number of included internuclear angles:         16
 ==============================================================================





 Summary of "ao basis" -> "" (spherical)
 ------------------------------------------------------------------------------
       Tag                 Description            Shells   Functions and Types
 ---------------- ------------------------------  ------  ---------------------
 *                        aug-cc-pvtz                 on all atoms 


 
                                 NWChem DFT Module
                                 -----------------
 
 
                                       None
 
 
                      Basis "ao basis" -> "ao basis" (spherical)
                      -----
  C (Carbon)
  ----------
            Exponent  Coefficients 
       -------------- ---------------------------------------------------------
  1 S  8.23600000E+03  0.000531
  1 S  1.23500000E+03  0.004108
  1 S  2.80800000E+02  0.021087
  1 S  7.92700000E+01  0.081853
  1 S  2.55900000E+01  0.234817
  1 S  8.99700000E+00  0.434401
  1 S  3.31900000E+00  0.346129
  1 S  3.64300000E-01 -0.008983
 
  2 S  8.23600000E+03 -0.000113
  2 S  1.23500000E+03 -0.000878
  2 S  2.80800000E+02 -0.004540
  2 S  7.92700000E+01 -0.018133
  2 S  2.55900000E+01 -0.055760
  2 S  8.99700000E+00 -0.126895
  2 S  3.31900000E+00 -0.170352
  2 S  3.64300000E-01  0.598684
 
  3 S  9.05900000E-01  1.000000
 
  4 S  1.28500000E-01  1.000000
 
  5 S  4.40200000E-02  1.000000
 
  6 P  1.87100000E+01  0.014031
  6 P  4.13300000E+00  0.086866
  6 P  1.20000000E+00  0.290216
 
  7 P  3.82700000E-01  1.000000
 
  8 P  1.20900000E-01  1.000000
 
  9 P  3.56900000E-02  1.000000
 
 10 D  1.09700000E+00  1.000000
 
 11 D  3.18000000E-01  1.000000
 
 12 D  1.00000000E-01  1.000000
 
 13 F  7.61000000E-01  1.000000
 
 14 F  2.68000000E-01  1.000000
 
  H (Hydrogen)
  ------------
            Exponent  Coefficients 
       -------------- ---------------------------------------------------------
  1 S  3.38700000E+01  0.006068
  1 S  5.09500000E+00  0.045308
  1 S  1.15900000E+00  0.202822
 
  2 S  3.25800000E-01  1.000000
 
  3 S  1.02700000E-01  1.000000
 
  4 S  2.52600000E-02  1.000000
 
  5 P  1.40700000E+00  1.000000
 
  6 P  3.88000000E-01  1.000000
 
  7 P  1.02000000E-01  1.000000
 
  8 D  1.05700000E+00  1.000000
 
  9 D  2.47000000E-01  1.000000
 


 Summary of "ao basis" -> "ao basis" (spherical)
 ------------------------------------------------------------------------------
       Tag                 Description            Shells   Functions and Types
 ---------------- ------------------------------  ------  ---------------------
 C                        aug-cc-pvtz               14       46   5s4p3d2f
 H                        aug-cc-pvtz                9       23   4s3p2d




 Summary of "ao basis" -> "ao basis" (spherical)
 ------------------------------------------------------------------------------
       Tag                 Description            Shells   Functions and Types
 ---------------- ------------------------------  ------  ---------------------
 C                        aug-cc-pvtz               14       46   5s4p3d2f
 H                        aug-cc-pvtz                9       23   4s3p2d


  Caching 1-el integrals 
 
            General Information
            -------------------
          SCF calculation type: DFT
          Wavefunction type:  spin polarized.
          No. of atoms     :    11
          No. of electrons :    41
           Alpha electrons :    21
            Beta electrons :    20
          Charge           :     0
          Spin multiplicity:     2
          Use of symmetry is: off; symmetry adaption is: off
          Maximum number of iterations: 500
          This is a Direct SCF calculation.
          AO basis - number of functions:   391
                     number of shells:   129
          Convergence on energy requested:  1.00D-06
          Convergence on density requested:  1.00D-05
          Convergence on gradient requested:  5.00D-04
 
              XC Information
              --------------
                         B3LYP Method XC Potential
                     Hartree-Fock (Exact) Exchange  0.200          
                        Slater Exchange Functional  0.800 local    
                    Becke 1988 Exchange Functional  0.720 non-local
              Lee-Yang-Parr Correlation Functional  0.810          
                  VWN I RPA Correlation Functional  0.190 local    
 
             Grid Information
             ----------------
          Grid used for XC integration:  medium    
          Radial quadrature: Mura-Knowles        
          Angular quadrature: Lebedev. 
          Tag              B.-S. Rad. Rad. Pts. Rad. Cut. Ang. Pts.
          ---              ---------- --------- --------- ---------
          C                   0.70       49          15.0       434
          H                   0.35       45          17.0       434
          Grid pruning is: on 
          Number of quadrature shells:   519
          Spatial weights used:  Erf1
 
          Convergence Information
          -----------------------
          Convergence aids based upon iterative change in 
          total energy or number of iterations. 
          Levelshifting, if invoked, occurs when the 
          HOMO/LUMO gap drops below (HL_TOL):  1.00D-02
          DIIS, if invoked, will attempt to extrapolate 
          using up to (NFOCK): 10 stored Fock matrices.

                    Damping( 0%)  Levelshifting(0.5)       DIIS
                  --------------- ------------------- ---------------
          dE  on:    start            ASAP                start   
          dE off:    2 iters        500 iters           500 iters 

 
      Screening Tolerance Information
      -------------------------------
          Density screening/tol_rho:  1.00D-10
          AO Gaussian exp screening on grid/accAOfunc:  14
          CD Gaussian exp screening on grid/accCDfunc:  20
          XC Gaussian exp screening on grid/accXCfunc:  20
          Schwarz screening/accCoul:  1.00D-08

 
 WARNING : Found     7 linear dependencies 
 S eigenvalue threshold:     1.00000E-05
 Smallest S eigenvalue :     1.46359E-06
 Largest  S eigenvalue :     7.76604E-06
 

 !! The overlap matrix has   7 vectors deemed linearly dependent with
    eigenvalues:
 1.46D-06 2.24D-06 2.83D-06 3.54D-06 5.28D-06 5.95D-06 7.77D-06
 
 
      Superposition of Atomic Density Guess
      -------------------------------------
 
 Sum of atomic energies:        -228.52307259
 
      Non-variational initial energy
      ------------------------------

 Total energy =    -232.667196
 1-e energy   =    -691.328330
 2-e energy   =     263.597232
 HOMO         =      -0.183326
 LUMO         =      -0.022268
 
   Time after variat. SCF:      9.8
   Time prior to 1st pass:      9.8

 Grid_pts file          = ./mode423.91-m.gridpts.00
 Record size in doubles =  12289        No. of grid_pts per rec  =   3070
 Max. records in memory =      6        Max. recs in file   = 220003086

 Grid integrated density:      40.999765891300
 Requested integration accuracy:   0.10E-05

           Memory utilization after 1st SCF pass: 
           Heap Space remaining (MW):       12.96            12961278
          Stack Space remaining (MW):       13.10            13103676

   convergence    iter        energy       DeltaE   RMS-Dens  Diis-err    time
 ---------------- ----- ----------------- --------- --------- ---------  ------
 d= 0,ls=0.0,diis     1   -231.5815928496 -4.27D+02  6.18D-02  2.09D-01    22.2
                                                     6.98D-02  1.96D-01
 d= 0,ls=0.0,diis     2   -231.6398335077 -5.82D-02  6.09D-02  1.22D-02    34.6
                                                     6.87D-02  1.25D-02
 d= 0,ls=0.0,diis     3   -231.6446110882 -4.78D-03  1.28D-03  3.44D-03    47.0
                                                     1.38D-03  3.50D-03
 d= 0,ls=0.0,diis     4   -231.6457677902 -1.16D-03  2.03D-04  1.12D-03    59.4
                                                     2.07D-04  1.06D-03
 d= 0,ls=0.0,diis     5   -231.6462859851 -5.18D-04  3.40D-05  4.24D-05    71.8
                                                     3.12D-05  4.84D-05
  Resetting Diis
 d= 0,ls=0.0,diis     6   -231.6463138642 -2.79D-05  1.11D-05  7.81D-06    84.2
                                                     1.06D-05  6.31D-06
 d= 0,ls=0.0,diis     7   -231.6463200602 -6.20D-06  7.32D-06  2.13D-06    96.6
                                                     6.52D-06  2.39D-06
 d= 0,ls=0.0,diis     8   -231.6463211328 -1.07D-06  3.06D-06  5.49D-06   109.0
                                                     2.71D-06  4.83D-06
 d= 0,ls=0.0,diis     9   -231.6463244263 -3.29D-06  3.74D-06  3.84D-07   121.4
                                                     3.31D-06  3.27D-07
 d= 0,ls=0.0,diis    10   -231.6463257311 -1.30D-06  2.14D-06  1.89D-07   133.8
                                                     2.45D-06  2.88D-07
 d= 0,ls=0.0,diis    11   -231.6463261649 -4.34D-07  5.94D-07  1.19D-08   146.2
                                                     5.15D-07  9.02D-09


         Total DFT energy =     -231.646326164867
      One electron energy =     -696.560779412202
           Coulomb energy =      304.259737914625
    Exchange-Corr. energy =      -34.409187221103
 Nuclear repulsion energy =      195.063902553813

 Numeric. integr. density =       40.999984397345

     Total iterative time =    136.4s


 
                    DFT Final Alpha Molecular Orbital Analysis
                    ------------------------------------------
 
 Vector    1  Occ=1.000000D+00  E=-1.020526D+01
              MO Center= -8.7D-02,  1.4D+00,  1.8D-03, r^2= 3.0D-02
   Bfn.  Coefficient  Atom+Function         Bfn.  Coefficient  Atom+Function  
  ----- ------------  ---------------      ----- ------------  ---------------
     1      0.984164   1 C  s                 3      0.058854   1 C  s         
    50     -0.038416   2 C  s               234     -0.038416   6 C  s         
   143      0.037874   4 C  s               279      0.037950   7 H  s         
   371      0.037949  11 H  s                51     -0.030667   2 C  s         
   235     -0.030666   6 C  s                47      0.025288   2 C  s         
 
 Vector    2  Occ=1.000000D+00  E=-1.019183D+01
              MO Center= -7.3D-01, -6.3D-01, -5.8D-04, r^2= 9.6D-01
   Bfn.  Coefficient  Atom+Function         Bfn.  Coefficient  Atom+Function  
  ----- ------------  ---------------      ----- ------------  ---------------
    93      0.874118   3 C  s               185      0.412010   5 C  s         
    47      0.176806   2 C  s               142     -0.092912   4 C  s         
   231      0.072019   6 C  s               139      0.055747   4 C  s         
    95      0.052264   3 C  s               302      0.049055   8 H  s         
   325      0.048089   9 H  s               234      0.036376   6 C  s         
 
 Vector    3  Occ=1.000000D+00  E=-1.019180D+01
              MO Center=  8.1D-01, -5.2D-01, -5.9D-04, r^2= 9.8D-01
   Bfn.  Coefficient  Atom+Function         Bfn.  Coefficient  Atom+Function  
  ----- ------------  ---------------      ----- ------------  ---------------
   185      0.872109   5 C  s                93     -0.407803   3 C  s         
   231      0.190394   6 C  s                47     -0.100696   2 C  s         
    50      0.062542   2 C  s               348      0.059054  10 H  s         
    51      0.052890   2 C  s               187      0.051925   5 C  s         
   279     -0.051676   7 H  s               234     -0.051092   6 C  s         
 
 Vector    4  Occ=1.000000D+00  E=-1.019034D+01
              MO Center= -1.1D+00,  6.4D-01, -5.9D-04, r^2= 3.9D-01
   Bfn.  Coefficient  Atom+Function         Bfn.  Coefficient  Atom+Function  
  ----- ------------  ---------------      ----- ------------  ---------------
    47      0.940217   2 C  s               231      0.221586   6 C  s         
    93     -0.191989   3 C  s               279      0.058557   7 H  s         
    49      0.054934   2 C  s               143      0.037894   4 C  s         
     4     -0.035243   1 C  s               185     -0.033183   5 C  s         
   142     -0.032013   4 C  s               189      0.031679   5 C  s         
 
 Vector    5  Occ=1.000000D+00  E=-1.019033D+01
              MO Center=  1.0D+00,  7.7D-01, -5.9D-04, r^2= 4.0D-01
   Bfn.  Coefficient  Atom+Function         Bfn.  Coefficient  Atom+Function  
  ----- ------------  ---------------      ----- ------------  ---------------
   231      0.938604   6 C  s                47     -0.214720   2 C  s         
   185     -0.197634   5 C  s                93      0.056997   3 C  s         
   371      0.056250  11 H  s               233      0.054436   6 C  s         
    97      0.045932   3 C  s                96      0.041038   3 C  s         
   189     -0.039683   5 C  s                12     -0.037467   1 C  px        
 
 Vector    6  Occ=1.000000D+00  E=-1.018432D+01
              MO Center=  8.3D-02, -1.3D+00,  1.3D-03, r^2= 3.5D-02
   Bfn.  Coefficient  Atom+Function         Bfn.  Coefficient  Atom+Function  
  ----- ------------  ---------------      ----- ------------  ---------------
   139      0.984285   4 C  s               141      0.057792   4 C  s         
    96     -0.045905   3 C  s               188     -0.045907   5 C  s         
   325      0.046000   9 H  s               143     -0.043503   4 C  s         
     4      0.040390   1 C  s                93     -0.039664   3 C  s         
   185     -0.039749   5 C  s               151      0.036015   4 C  py        
 
 Vector    7  Occ=1.000000D+00  E=-8.724599D-01
              MO Center= -6.3D-03,  9.9D-02,  1.0D-04, r^2= 2.0D+00
   Bfn.  Coefficient  Atom+Function         Bfn.  Coefficient  Atom+Function  
  ----- ------------  ---------------      ----- ------------  ---------------
     2      0.214062   1 C  s                48      0.202671   2 C  s         
   232      0.202654   6 C  s                94      0.195596   3 C  s         
   186      0.195580   5 C  s               140      0.188217   4 C  s         
    50      0.090244   2 C  s               234      0.090235   6 C  s         
    96      0.088094   3 C  s               188      0.088088   5 C  s         
 
 Vector    8  Occ=1.000000D+00  E=-7.627318D-01
              MO Center= -6.3D-03,  1.0D-01, -4.2D-04, r^2= 2.8D+00
   Bfn.  Coefficient  Atom+Function         Bfn.  Coefficient  Atom+Function  
  ----- ------------  ---------------      ----- ------------  ---------------
    48      0.250858   2 C  s               232     -0.250868   6 C  s         
    94      0.243819   3 C  s               186     -0.243826   5 C  s         
    50      0.146222   2 C  s               234     -0.146231   6 C  s         
   279     -0.129365   7 H  s               371      0.129370  11 H  s         
   150     -0.115516   4 C  px               97      0.110867   3 C  s         
 
 Vector    9  Occ=1.000000D+00  E=-7.537322D-01
              MO Center=  9.2D-03, -1.5D-01,  4.6D-04, r^2= 2.6D+00
   Bfn.  Coefficient  Atom+Function         Bfn.  Coefficient  Atom+Function  
  ----- ------------  ---------------      ----- ------------  ---------------
   140     -0.300918   4 C  s                 2      0.278553   1 C  s         
    94     -0.148872   3 C  s               186     -0.148864   5 C  s         
    48      0.148026   2 C  s               142     -0.147429   4 C  s         
   232      0.148016   6 C  s                96     -0.104906   3 C  s         
   188     -0.104903   5 C  s                 4      0.103012   1 C  s         
 
 Vector   10  Occ=1.000000D+00  E=-6.187393D-01
              MO Center= -2.5D-03,  3.9D-02, -1.6D-04, r^2= 3.6D+00
   Bfn.  Coefficient  Atom+Function         Bfn.  Coefficient  Atom+Function  
  ----- ------------  ---------------      ----- ------------  ---------------
    94     -0.208567   3 C  s               186      0.208561   5 C  s         
    48      0.199458   2 C  s               232     -0.199464   6 C  s         
    50      0.183350   2 C  s               234     -0.183357   6 C  s         
    96     -0.146993   3 C  s               188      0.146983   5 C  s         
     6     -0.127294   1 C  px              144      0.116926   4 C  px        
 
 Vector   11  Occ=1.000000D+00  E=-6.035491D-01
              MO Center=  5.4D-03, -8.7D-02, -2.6D-04, r^2= 3.5D+00
   Bfn.  Coefficient  Atom+Function         Bfn.  Coefficient  Atom+Function  
  ----- ------------  ---------------      ----- ------------  ---------------
   142      0.258345   4 C  s                 2      0.238938   1 C  s         
   140      0.218767   4 C  s                 4      0.198697   1 C  s         
    94     -0.138340   3 C  s               186     -0.138359   5 C  s         
    50     -0.122719   2 C  s               234     -0.122710   6 C  s         
    96     -0.119267   3 C  s               188     -0.119279   5 C  s         
 
 Vector   12  Occ=1.000000D+00  E=-5.277271D-01
              MO Center=  9.4D-03, -1.5D-01,  1.7D-05, r^2= 4.1D+00
   Bfn.  Coefficient  Atom+Function         Bfn.  Coefficient  Atom+Function  
  ----- ------------  ---------------      ----- ------------  ---------------
   148      0.159262   4 C  py              145      0.138838   4 C  py        
   324     -0.126841   9 H  s                55      0.105300   2 C  px        
   240     -0.104900   6 C  py              323     -0.100378   9 H  s         
   237     -0.096178   6 C  py              193     -0.094440   5 C  px        
   278     -0.094489   7 H  s               370     -0.094483  11 H  s         
 
 Vector   13  Occ=1.000000D+00  E=-4.645290D-01
              MO Center= -6.7D-03,  1.0D-01,  1.2D-04, r^2= 2.7D+00
   Bfn.  Coefficient  Atom+Function         Bfn.  Coefficient  Atom+Function  
  ----- ------------  ---------------      ----- ------------  ---------------
     9      0.189042   1 C  px                6      0.175363   1 C  px        
   147      0.172357   4 C  px              144      0.159073   4 C  px        
   239     -0.136870   6 C  px              194     -0.134748   5 C  py        
    56     -0.131372   2 C  py               55     -0.121400   2 C  px        
   191     -0.121431   5 C  py              236     -0.121875   6 C  px        
 
 Vector   14  Occ=1.000000D+00  E=-4.631585D-01
              MO Center=  1.0D-02, -1.6D-01, -1.1D-03, r^2= 4.8D+00
   Bfn.  Coefficient  Atom+Function         Bfn.  Coefficient  Atom+Function  
  ----- ------------  ---------------      ----- ------------  ---------------
     2      0.176559   1 C  s               301      0.136700   8 H  s         
   347      0.136675  10 H  s               140     -0.129403   4 C  s         
   193      0.127764   5 C  px              196      0.120321   5 C  px        
   101     -0.118803   3 C  px              190      0.118565   5 C  px        
    96      0.117520   3 C  s               104     -0.117398   3 C  px        
 
 Vector   15  Occ=1.000000D+00  E=-4.399778D-01
              MO Center= -1.3D-02,  2.1D-01, -9.8D-04, r^2= 4.0D+00
   Bfn.  Coefficient  Atom+Function         Bfn.  Coefficient  Atom+Function  
  ----- ------------  ---------------      ----- ------------  ---------------
   240      0.143969   6 C  py              102      0.139211   3 C  py        
   237      0.132908   6 C  py              278     -0.131460   7 H  s         
   370      0.131457  11 H  s                99      0.130195   3 C  py        
    55      0.129420   2 C  px               56     -0.128748   2 C  py        
   194     -0.126951   5 C  py               53     -0.119659   2 C  py        
 
 Vector   16  Occ=1.000000D+00  E=-3.990534D-01
              MO Center=  4.9D-02, -7.8D-01,  7.9D-04, r^2= 3.3D+00
   Bfn.  Coefficient  Atom+Function         Bfn.  Coefficient  Atom+Function  
  ----- ------------  ---------------      ----- ------------  ---------------
   148      0.233506   4 C  py              145      0.209188   4 C  py        
   324     -0.198589   9 H  s               151      0.172697   4 C  py        
   323     -0.154027   9 H  s                10      0.138644   1 C  py        
    13      0.120982   1 C  py              240      0.115208   6 C  py        
    56      0.109434   2 C  py                7      0.107927   1 C  py        
 
 Vector   17  Occ=1.000000D+00  E=-3.837004D-01
              MO Center= -7.7D-03,  1.2D-01,  6.2D-04, r^2= 2.7D+00
   Bfn.  Coefficient  Atom+Function         Bfn.  Coefficient  Atom+Function  
  ----- ------------  ---------------      ----- ------------  ---------------
    11      0.173450   1 C  pz               57      0.156408   2 C  pz        
   241      0.156396   6 C  pz              103      0.152228   3 C  pz        
   195      0.152216   5 C  pz              149      0.145887   4 C  pz        
     8      0.136824   1 C  pz               54      0.125782   2 C  pz        
   238      0.125772   6 C  pz              100      0.121729   3 C  pz        
 
 Vector   18  Occ=1.000000D+00  E=-3.659894D-01
              MO Center=  9.1D-03, -1.4D-01, -5.5D-04, r^2= 4.1D+00
   Bfn.  Coefficient  Atom+Function         Bfn.  Coefficient  Atom+Function  
  ----- ------------  ---------------      ----- ------------  ---------------
   147     -0.169332   4 C  px              101      0.165178   3 C  px        
   193      0.165098   5 C  px              144     -0.159884   4 C  px        
     9      0.149417   1 C  px               98      0.149455   3 C  px        
   190      0.149153   5 C  px                6      0.141599   1 C  px        
   196      0.135655   5 C  px              104      0.133535   3 C  px        
 
 Vector   19  Occ=1.000000D+00  E=-2.685136D-01
              MO Center=  9.1D-04, -1.5D-02,  1.7D-03, r^2= 3.0D+00
   Bfn.  Coefficient  Atom+Function         Bfn.  Coefficient  Atom+Function  
  ----- ------------  ---------------      ----- ------------  ---------------
    11      0.245299   1 C  pz              149     -0.238553   4 C  pz        
     8      0.192908   1 C  pz              146     -0.190708   4 C  pz        
    14      0.176328   1 C  pz              152     -0.171623   4 C  pz        
   103     -0.126597   3 C  pz              195     -0.126468   5 C  pz        
    57      0.114762   2 C  pz              241      0.114881   6 C  pz        
 
 Vector   20  Occ=1.000000D+00  E=-2.678701D-01
              MO Center= -3.8D-03,  6.1D-02, -6.3D-04, r^2= 3.1D+00
   Bfn.  Coefficient  Atom+Function         Bfn.  Coefficient  Atom+Function  
  ----- ------------  ---------------      ----- ------------  ---------------
   103      0.207440   3 C  pz              195     -0.207521   5 C  pz        
    57      0.203846   2 C  pz              241     -0.203782   6 C  pz        
   100      0.165271   3 C  pz              192     -0.165336   5 C  pz        
    54      0.163240   2 C  pz              238     -0.163189   6 C  pz        
    60      0.150528   2 C  pz              106      0.149949   3 C  pz        
 
 Vector   21  Occ=1.000000D+00  E=-2.484186D-01
              MO Center= -8.2D-02,  1.3D+00,  6.8D-04, r^2= 2.3D+00
   Bfn.  Coefficient  Atom+Function         Bfn.  Coefficient  Atom+Function  
  ----- ------------  ---------------      ----- ------------  ---------------
    10      0.385993   1 C  py               13      0.337686   1 C  py        
     5      0.335227   1 C  s                 7      0.299343   1 C  py        
     4      0.279438   1 C  s                 2      0.138348   1 C  s         
   243     -0.136196   6 C  py               59     -0.134139   2 C  py        
   102      0.112395   3 C  py              194      0.112406   5 C  py        
 
 Vector   22  Occ=0.000000D+00  E=-2.600666D-02
              MO Center= -4.3D-03,  6.8D-02, -2.6D-04, r^2= 4.3D+00
   Bfn.  Coefficient  Atom+Function         Bfn.  Coefficient  Atom+Function  
  ----- ------------  ---------------      ----- ------------  ---------------
   109     -0.320097   3 C  pz              201      0.320077   5 C  pz        
    63      0.314644   2 C  pz              247     -0.314632   6 C  pz        
    60      0.226968   2 C  pz              244     -0.226962   6 C  pz        
   106     -0.223735   3 C  pz              198      0.223722   5 C  pz        
    57      0.218765   2 C  pz              241     -0.218761   6 C  pz        
 
 Vector   23  Occ=0.000000D+00  E=-1.861499D-02
              MO Center=  3.1D-03, -5.0D-02, -5.5D-04, r^2= 4.3D+00
   Bfn.  Coefficient  Atom+Function         Bfn.  Coefficient  Atom+Function  
  ----- ------------  ---------------      ----- ------------  ---------------
   155      0.439544   4 C  pz               17      0.373524   1 C  pz        
   152      0.273921   4 C  pz               11      0.258938   1 C  pz        
   149      0.250767   4 C  pz               14      0.240468   1 C  pz        
   109     -0.226046   3 C  pz              201     -0.226056   5 C  pz        
     8      0.200613   1 C  pz               63     -0.198193   2 C  pz        
 
 Vector   24  Occ=0.000000D+00  E=-1.010902D-02
              MO Center=  6.0D-02, -9.5D-01,  2.0D-04, r^2= 2.0D+01
   Bfn.  Coefficient  Atom+Function         Bfn.  Coefficient  Atom+Function  
  ----- ------------  ---------------      ----- ------------  ---------------
     5      1.446661   1 C  s               279     -0.976440   7 H  s         
   371     -0.976436  11 H  s               326     -0.741581   9 H  s         
   303     -0.730309   8 H  s               349     -0.730177  10 H  s         
   302     -0.650224   8 H  s               348     -0.650233  10 H  s         
   325     -0.588299   9 H  s                51      0.561490   2 C  s         
 
 Vector   25  Occ=0.000000D+00  E= 4.382009D-03
              MO Center=  1.6D-02, -2.6D-01, -3.3D-03, r^2= 2.7D+01
   Bfn.  Coefficient  Atom+Function         Bfn.  Coefficient  Atom+Function  
  ----- ------------  ---------------      ----- ------------  ---------------
    51      2.731960   2 C  s               235     -2.731703   6 C  s         
    97      2.672763   3 C  s               189     -2.672764   5 C  s         
   303      1.996688   8 H  s               349     -1.996799  10 H  s         
    15      1.866835   1 C  px              153      1.807466   4 C  px        
   280      1.540141   7 H  s               372     -1.540035  11 H  s         
 
 Vector   26  Occ=0.000000D+00  E= 8.728887D-03
              MO Center=  4.6D-03, -7.3D-02,  2.7D-05, r^2= 2.7D+01
   Bfn.  Coefficient  Atom+Function         Bfn.  Coefficient  Atom+Function  
  ----- ------------  ---------------      ----- ------------  ---------------
   143      6.245376   4 C  s                51     -4.009654   2 C  s         
   235     -4.009839   6 C  s               326      2.932153   9 H  s         
     5      2.589598   1 C  s               280     -2.388409   7 H  s         
   372     -2.388418  11 H  s               154      1.947076   4 C  py        
   246      1.934032   6 C  py               62      1.829871   2 C  py        
 
 Vector   27  Occ=0.000000D+00  E= 2.670495D-02
              MO Center= -1.5D-02,  2.4D-01, -3.2D-03, r^2= 3.1D+01
   Bfn.  Coefficient  Atom+Function         Bfn.  Coefficient  Atom+Function  
  ----- ------------  ---------------      ----- ------------  ---------------
   280      3.932356   7 H  s               372     -3.932436  11 H  s         
    51      3.659045   2 C  s               235     -3.659442   6 C  s         
   303     -3.601873   8 H  s               349      3.601717  10 H  s         
    61      2.222112   2 C  px               97     -2.189398   3 C  s         
   189      2.189425   5 C  s               199     -2.040871   5 C  px        
 
 Vector   28  Occ=0.000000D+00  E= 3.221581D-02
              MO Center=  3.9D-02, -6.2D-01,  2.3D-03, r^2= 2.9D+01
   Bfn.  Coefficient  Atom+Function         Bfn.  Coefficient  Atom+Function  
  ----- ------------  ---------------      ----- ------------  ---------------
     5      6.397561   1 C  s               326     -4.998217   9 H  s         
   303      3.725359   8 H  s               349      3.725678  10 H  s         
    97     -2.179990   3 C  s               154     -2.176227   4 C  py        
   189     -2.179645   5 C  s               199     -1.647611   5 C  px        
   245      1.634106   6 C  px               61     -1.580615   2 C  px        
 
 Vector   29  Occ=0.000000D+00  E= 4.329354D-02
              MO Center=  1.4D-02, -2.2D-01,  1.4D-03, r^2= 1.3D+01
   Bfn.  Coefficient  Atom+Function         Bfn.  Coefficient  Atom+Function  
  ----- ------------  ---------------      ----- ------------  ---------------
   155      0.598831   4 C  pz               63      0.576466   2 C  pz        
   247      0.576428   6 C  pz                5     -0.264377   1 C  s         
    17     -0.260333   1 C  pz              143     -0.178450   4 C  s         
    51      0.163207   2 C  s               235      0.162372   6 C  s         
    60     -0.154863   2 C  pz              244     -0.154877   6 C  pz        
 
 Vector   30  Occ=0.000000D+00  E= 5.496351D-02
              MO Center=  9.4D-03, -1.5D-01, -7.2D-03, r^2= 1.5D+01
   Bfn.  Coefficient  Atom+Function         Bfn.  Coefficient  Atom+Function  
  ----- ------------  ---------------      ----- ------------  ---------------
     5     10.709238   1 C  s               143      5.282143   4 C  s         
    51     -4.488101   2 C  s               235     -4.488031   6 C  s         
   303     -2.801159   8 H  s               349     -2.801093  10 H  s         
   326      2.060481   9 H  s               199      2.006669   5 C  px        
    97     -1.951867   3 C  s               189     -1.951760   5 C  s         
 
 Vector   31  Occ=0.000000D+00  E= 6.334939D-02
              MO Center= -4.1D-02,  6.5D-01,  1.6D-02, r^2= 2.8D+01
   Bfn.  Coefficient  Atom+Function         Bfn.  Coefficient  Atom+Function  
  ----- ------------  ---------------      ----- ------------  ---------------
     5     24.372599   1 C  s                51     -9.850784   2 C  s         
   235     -9.850445   6 C  s               143      7.619315   4 C  s         
    97     -6.510285   3 C  s               189     -6.510254   5 C  s         
   326      5.864107   9 H  s               154      4.769903   4 C  py        
   303     -4.681485   8 H  s               349     -4.681643  10 H  s         
 
 Vector   32  Occ=0.000000D+00  E= 6.574591D-02
              MO Center=  1.6D-03, -2.5D-02,  3.4D-03, r^2= 1.8D+01
   Bfn.  Coefficient  Atom+Function         Bfn.  Coefficient  Atom+Function  
  ----- ------------  ---------------      ----- ------------  ---------------
   109      0.976552   3 C  pz              201     -0.976541   5 C  pz        
    63      0.770276   2 C  pz              247     -0.770239   6 C  pz        
   169     -0.676982   4 C  d  1             31     -0.583285   1 C  d  1      
   106      0.492384   3 C  pz              198     -0.492395   5 C  pz        
    60      0.488368   2 C  pz              244     -0.488343   6 C  pz        
 
 Vector   33  Occ=0.000000D+00  E= 6.826402D-02
              MO Center= -1.2D-02,  1.9D-01, -1.3D-02, r^2= 1.8D+01
   Bfn.  Coefficient  Atom+Function         Bfn.  Coefficient  Atom+Function  
  ----- ------------  ---------------      ----- ------------  ---------------
    63      1.024289   2 C  pz              247      1.024252   6 C  pz        
   109     -0.812035   3 C  pz              201     -0.811914   5 C  pz        
   155     -0.750563   4 C  pz               14      0.629550   1 C  pz        
   152     -0.617658   4 C  pz               17      0.458359   1 C  pz        
   213     -0.449498   5 C  d -1            121     -0.405686   3 C  d -1      
 
 Vector   34  Occ=0.000000D+00  E= 7.645682D-02
              MO Center=  9.2D-03, -1.6D-01, -5.9D-03, r^2= 3.4D+01
   Bfn.  Coefficient  Atom+Function         Bfn.  Coefficient  Atom+Function  
  ----- ------------  ---------------      ----- ------------  ---------------
    51     13.865783   2 C  s               235    -13.868219   6 C  s         
    97     12.411046   3 C  s               189    -12.411810   5 C  s         
    15      7.678886   1 C  px              153      7.709499   4 C  px        
   107      4.764639   3 C  px              303      4.691736   8 H  s         
   349     -4.691057  10 H  s               199      4.461717   5 C  px        
 
 Vector   35  Occ=0.000000D+00  E= 7.792196D-02
              MO Center=  2.1D-01, -3.3D+00,  2.3D-03, r^2= 2.1D+01
   Bfn.  Coefficient  Atom+Function         Bfn.  Coefficient  Atom+Function  
  ----- ------------  ---------------      ----- ------------  ---------------
   143     18.275958   4 C  s                51    -13.447668   2 C  s         
   235    -13.442956   6 C  s               326      7.027205   9 H  s         
    62      5.654151   2 C  py              246      5.677991   6 C  py        
   200      5.395019   5 C  py              154      5.274501   4 C  py        
   108      5.037971   3 C  py              279      4.190601   7 H  s         
 
 Vector   36  Occ=0.000000D+00  E= 8.155267D-02
              MO Center= -8.8D-02,  1.4D+00, -1.0D-03, r^2= 2.8D+01
   Bfn.  Coefficient  Atom+Function         Bfn.  Coefficient  Atom+Function  
  ----- ------------  ---------------      ----- ------------  ---------------
   143     20.709394   4 C  s                51     -8.944048   2 C  s         
   235     -8.946333   6 C  s               246      5.260085   6 C  py        
    62      5.166027   2 C  py              325     -4.965063   9 H  s         
   280     -4.563879   7 H  s               372     -4.564313  11 H  s         
   200      4.482713   5 C  py              326      4.498936   9 H  s         
 
 Vector   37  Occ=0.000000D+00  E= 8.317373D-02
              MO Center=  4.6D-02, -7.3D-01, -4.8D-04, r^2= 2.2D+01
   Bfn.  Coefficient  Atom+Function         Bfn.  Coefficient  Atom+Function  
  ----- ------------  ---------------      ----- ------------  ---------------
    97      4.940799   3 C  s               189     -4.941120   5 C  s         
    51     -3.129047   2 C  s               235      3.131511   6 C  s         
   108      2.795500   3 C  py              303      2.803870   8 H  s         
   349     -2.803888  10 H  s               200     -2.681638   5 C  py        
   153      2.603819   4 C  px               96      2.073130   3 C  s         
 
 Vector   38  Occ=0.000000D+00  E= 9.540226D-02
              MO Center= -5.5D-02,  8.8D-01, -2.3D-03, r^2= 3.1D+01
   Bfn.  Coefficient  Atom+Function         Bfn.  Coefficient  Atom+Function  
  ----- ------------  ---------------      ----- ------------  ---------------
    51     17.680592   2 C  s               235    -17.682244   6 C  s         
   280      7.217106   7 H  s               372     -7.217104  11 H  s         
    97     -6.903510   3 C  s               189      6.903778   5 C  s         
   108     -6.460910   3 C  py              303     -6.201518   8 H  s         
   349      6.200978  10 H  s               200      5.918570   5 C  py        
 
 Vector   39  Occ=0.000000D+00  E= 1.018006D-01
              MO Center= -7.1D-03,  1.1D-01, -1.6D-03, r^2= 1.9D+01
   Bfn.  Coefficient  Atom+Function         Bfn.  Coefficient  Atom+Function  
  ----- ------------  ---------------      ----- ------------  ---------------
    51     13.735895   2 C  s               235    -13.734897   6 C  s         
    97     10.883548   3 C  s               189    -10.883932   5 C  s         
    15     10.000736   1 C  px              153      9.716263   4 C  px        
   246     -6.096647   6 C  py              108     -6.023232   3 C  py        
   200      5.990047   5 C  py               62      5.910219   2 C  py        
 
 Vector   40  Occ=0.000000D+00  E= 1.064754D-01
              MO Center= -8.0D-03,  1.3D-01,  6.4D-03, r^2= 2.1D+01
   Bfn.  Coefficient  Atom+Function         Bfn.  Coefficient  Atom+Function  
  ----- ------------  ---------------      ----- ------------  ---------------
   143     18.275715   4 C  s                51     -9.937457   2 C  s         
   235     -9.937532   6 C  s                 5     -9.461969   1 C  s         
   107     -8.758284   3 C  px              199      7.977079   5 C  px        
   245     -7.043547   6 C  px              200      6.726882   5 C  py        
    61      6.488598   2 C  px              108      5.672223   3 C  py        
 
 Vector   41  Occ=0.000000D+00  E= 1.082039D-01
              MO Center= -1.0D-02,  1.6D-01,  9.5D-04, r^2= 2.2D+01
   Bfn.  Coefficient  Atom+Function         Bfn.  Coefficient  Atom+Function  
  ----- ------------  ---------------      ----- ------------  ---------------
    63      3.391612   2 C  pz              247     -3.391692   6 C  pz        
   109     -3.363100   3 C  pz              201      3.363484   5 C  pz        
    60      0.696897   2 C  pz              244     -0.696926   6 C  pz        
   106     -0.636802   3 C  pz              198      0.636887   5 C  pz        
    77     -0.380441   2 C  d  1            215      0.361334   5 C  d  1      
 
 Vector   42  Occ=0.000000D+00  E= 1.089647D-01
              MO Center=  3.0D-02, -4.7D-01, -4.5D-03, r^2= 2.1D+01
   Bfn.  Coefficient  Atom+Function         Bfn.  Coefficient  Atom+Function  
  ----- ------------  ---------------      ----- ------------  ---------------
   155      5.318324   4 C  pz              109     -3.441316   3 C  pz        
   201     -3.441094   5 C  pz               17      2.507054   1 C  pz        
   152      0.982763   4 C  pz              106     -0.603007   3 C  pz        
   198     -0.602975   5 C  pz              167      0.568940   4 C  d -1      
    14      0.503753   1 C  pz               63     -0.473598   2 C  pz        
 
 Vector   43  Occ=0.000000D+00  E= 1.094999D-01
              MO Center=  2.9D-02, -4.5D-01,  1.1D-03, r^2= 2.7D+01
   Bfn.  Coefficient  Atom+Function         Bfn.  Coefficient  Atom+Function  
  ----- ------------  ---------------      ----- ------------  ---------------
   326      7.663644   9 H  s               154      7.052078   4 C  py        
   303     -6.469587   8 H  s               349     -6.469935  10 H  s         
   143     -5.603506   4 C  s               108     -4.427266   3 C  py        
   200     -4.182017   5 C  py               62     -4.153067   2 C  py        
   246     -4.133611   6 C  py                4      3.923010   1 C  s         
 
 Vector   44  Occ=0.000000D+00  E= 1.178174D-01
              MO Center= -4.1D-02,  6.5D-01,  1.7D-03, r^2= 1.4D+01
   Bfn.  Coefficient  Atom+Function         Bfn.  Coefficient  Atom+Function  
  ----- ------------  ---------------      ----- ------------  ---------------
    17      6.879281   1 C  pz               63     -6.022844   2 C  pz        
   247     -6.022685   6 C  pz              109      5.052919   3 C  pz        
   201      5.052746   5 C  pz              155     -4.823028   4 C  pz        
    14      1.235653   1 C  pz               60     -1.020519   2 C  pz        
   244     -1.020484   6 C  pz              106      0.892316   3 C  pz        
 
 Vector   45  Occ=0.000000D+00  E= 1.264081D-01
              MO Center= -1.8D-02,  2.9D-01, -3.1D-04, r^2= 2.5D+01
   Bfn.  Coefficient  Atom+Function         Bfn.  Coefficient  Atom+Function  
  ----- ------------  ---------------      ----- ------------  ---------------
    51      7.586837   2 C  s               235     -7.586814   6 C  s         
   107      7.204114   3 C  px              199      7.127091   5 C  px        
   245     -7.037281   6 C  px               61     -6.926968   2 C  px        
    15      6.444008   1 C  px               97     -6.192019   3 C  s         
   189      6.192133   5 C  s               153     -5.818555   4 C  px        
 
 Vector   46  Occ=0.000000D+00  E= 1.274497D-01
              MO Center= -1.2D-02,  1.9D-01,  7.1D-04, r^2= 2.6D+01
   Bfn.  Coefficient  Atom+Function         Bfn.  Coefficient  Atom+Function  
  ----- ------------  ---------------      ----- ------------  ---------------
   154     -8.031829   4 C  py               16      7.425008   1 C  py        
   108      6.888810   3 C  py               62     -6.576560   2 C  py        
   200      6.570927   5 C  py              246     -6.383669   6 C  py        
   326     -4.051345   9 H  s                 5      3.566192   1 C  s         
   303      3.164563   8 H  s               349      3.164885  10 H  s         
 
 Vector   47  Occ=0.000000D+00  E= 1.609542D-01
              MO Center= -8.5D-03,  1.4D-01,  2.8D-04, r^2= 1.7D+01
   Bfn.  Coefficient  Atom+Function         Bfn.  Coefficient  Atom+Function  
  ----- ------------  ---------------      ----- ------------  ---------------
    17      8.192808   1 C  pz               63     -8.004385   2 C  pz        
   247     -8.004476   6 C  pz              155     -7.856606   4 C  pz        
   109      7.771262   3 C  pz              201      7.771380   5 C  pz        
    60     -1.191896   2 C  pz              106      1.192852   3 C  pz        
   198      1.192875   5 C  pz              244     -1.191940   6 C  pz        
 
 Vector   48  Occ=0.000000D+00  E= 1.660202D-01
              MO Center= -8.9D-02,  1.4D+00, -1.5D-03, r^2= 2.2D+01
   Bfn.  Coefficient  Atom+Function         Bfn.  Coefficient  Atom+Function  
  ----- ------------  ---------------      ----- ------------  ---------------
     5     59.209637   1 C  s                51    -25.983627   2 C  s         
   143     25.967615   4 C  s               235    -25.983734   6 C  s         
    97    -14.416985   3 C  s               189    -14.416473   5 C  s         
   154      7.428801   4 C  py              245      6.813751   6 C  px        
    61     -6.399089   2 C  px              326      6.156410   9 H  s         
 
 Vector   49  Occ=0.000000D+00  E= 1.754227D-01
              MO Center=  2.5D-02, -3.9D-01,  1.3D-02, r^2= 1.1D+01
   Bfn.  Coefficient  Atom+Function         Bfn.  Coefficient  Atom+Function  
  ----- ------------  ---------------      ----- ------------  ---------------
   335      1.104415   9 H  pz              312      1.079072   8 H  pz        
   358      1.079024  10 H  pz              289      0.973067   7 H  pz        
   381      0.973021  11 H  pz               17      0.959617   1 C  pz        
    63     -0.885406   2 C  pz              247     -0.885372   6 C  pz        
   106     -0.843020   3 C  pz              198     -0.842963   5 C  pz        
 
 Vector   50  Occ=0.000000D+00  E= 1.864255D-01
              MO Center=  3.4D-02, -5.5D-01, -1.1D-02, r^2= 1.5D+01
   Bfn.  Coefficient  Atom+Function         Bfn.  Coefficient  Atom+Function  
  ----- ------------  ---------------      ----- ------------  ---------------
     5     15.509700   1 C  s                97     -7.273809   3 C  s         
   189     -7.273348   5 C  s                51     -4.473161   2 C  s         
   235     -4.472739   6 C  s               325      4.427028   9 H  s         
    62     -4.045870   2 C  py              154      3.980278   4 C  py        
   246     -3.823831   6 C  py              302      3.260832   8 H  s         
 
 Vector   51  Occ=0.000000D+00  E= 1.980389D-01
              MO Center= -3.0D-02,  4.7D-01,  2.2D-03, r^2= 2.3D+01
   Bfn.  Coefficient  Atom+Function         Bfn.  Coefficient  Atom+Function  
  ----- ------------  ---------------      ----- ------------  ---------------
    51     44.599562   2 C  s               235    -44.593441   6 C  s         
    97     25.204365   3 C  s               189    -25.206027   5 C  s         
    15     18.497723   1 C  px              153     17.066858   4 C  px        
   302    -14.010848   8 H  s               348     14.011411  10 H  s         
   200      9.226082   5 C  py              108     -8.511038   3 C  py        
 
 Vector   52  Occ=0.000000D+00  E= 1.984433D-01
              MO Center=  4.6D-02, -7.3D-01, -1.1D-04, r^2= 2.3D+01
   Bfn.  Coefficient  Atom+Function         Bfn.  Coefficient  Atom+Function  
  ----- ------------  ---------------      ----- ------------  ---------------
   143     61.318582   4 C  s                51    -34.528871   2 C  s         
   235    -34.536809   6 C  s               325    -16.862055   9 H  s         
    62     14.720511   2 C  py              246     14.448707   6 C  py        
   200     13.768338   5 C  py              108     12.558321   3 C  py        
     5    -11.579008   1 C  s               279     11.180492   7 H  s         
 
 Vector   53  Occ=0.000000D+00  E= 2.154379D-01
              MO Center=  8.8D-02, -1.4D+00,  2.3D-03, r^2= 1.5D+01
   Bfn.  Coefficient  Atom+Function         Bfn.  Coefficient  Atom+Function  
  ----- ------------  ---------------      ----- ------------  ---------------
    97     13.856129   3 C  s               189    -13.855547   5 C  s         
    96      6.546924   3 C  s               188     -6.547017   5 C  s         
   153      6.324515   4 C  px              279     -5.135025   7 H  s         
   371      5.134780  11 H  s               303      4.735793   8 H  s         
   349     -4.735533  10 H  s               246     -4.493196   6 C  py        
 
 Vector   54  Occ=0.000000D+00  E= 2.182728D-01
              MO Center=  1.8D-02, -2.8D-01,  1.2D-03, r^2= 1.5D+01
   Bfn.  Coefficient  Atom+Function         Bfn.  Coefficient  Atom+Function  
  ----- ------------  ---------------      ----- ------------  ---------------
   143     25.784573   4 C  s                51    -17.781031   2 C  s         
   235    -17.792223   6 C  s                 5     15.976306   1 C  s         
    16     -6.446726   1 C  py              325     -6.047804   9 H  s         
    62      4.840158   2 C  py              246      4.722881   6 C  py        
   279      3.739969   7 H  s               371      3.740614  11 H  s         
 
 Vector   55  Occ=0.000000D+00  E= 2.191110D-01
              MO Center=  5.4D-03, -8.4D-02,  6.5D-03, r^2= 1.5D+01
   Bfn.  Coefficient  Atom+Function         Bfn.  Coefficient  Atom+Function  
  ----- ------------  ---------------      ----- ------------  ---------------
    51     19.799769   2 C  s               235    -19.790837   6 C  s         
   108     -8.471207   3 C  py              200      8.112888   5 C  py        
    15      7.528510   1 C  px              302     -6.933323   8 H  s         
   348      6.933354  10 H  s               153      6.302913   4 C  px        
   246     -4.034229   6 C  py               62      3.898283   2 C  py        
 
 Vector   56  Occ=0.000000D+00  E= 2.301108D-01
              MO Center= -1.8D-02,  2.9D-01,  5.0D-02, r^2= 1.8D+01
   Bfn.  Coefficient  Atom+Function         Bfn.  Coefficient  Atom+Function  
  ----- ------------  ---------------      ----- ------------  ---------------
   199      4.895387   5 C  px              107      4.630757   3 C  px        
   153     -3.546943   4 C  px               50     -3.262588   2 C  s         
   234      3.262136   6 C  s               303      3.147784   8 H  s         
   349     -3.147061  10 H  s                15     -2.611138   1 C  px        
   108      2.410832   3 C  py               59      1.944223   2 C  py        
 
 Vector   57  Occ=0.000000D+00  E= 2.312067D-01
              MO Center= -1.6D-04,  2.6D-03, -6.3D-02, r^2= 1.6D+01
   Bfn.  Coefficient  Atom+Function         Bfn.  Coefficient  Atom+Function  
  ----- ------------  ---------------      ----- ------------  ---------------
   106      2.134704   3 C  pz              198     -2.134896   5 C  pz        
    60      2.039750   2 C  pz              244     -2.039521   6 C  pz        
   312     -1.811945   8 H  pz              358      1.811962  10 H  pz        
   289     -1.714394   7 H  pz              381      1.714365  11 H  pz        
   169     -1.374763   4 C  d  1             31     -1.242471   1 C  d  1      
 
 Vector   58  Occ=0.000000D+00  E= 2.354313D-01
              MO Center= -1.3D-02,  2.1D-01, -5.4D-03, r^2= 1.6D+01
   Bfn.  Coefficient  Atom+Function         Bfn.  Coefficient  Atom+Function  
  ----- ------------  ---------------      ----- ------------  ---------------
   143     14.935378   4 C  s                51    -10.475575   2 C  s         
   235    -10.468090   6 C  s               107     -8.190353   3 C  px        
   199      7.761345   5 C  px               61      5.431467   2 C  px        
   245     -5.309903   6 C  px              303     -4.419023   8 H  s         
   349     -4.420381  10 H  s                 5      4.072172   1 C  s         
 
 Vector   59  Occ=0.000000D+00  E= 2.365090D-01
              MO Center= -4.5D-03,  7.4D-02,  1.1D-03, r^2= 1.7D+01
   Bfn.  Coefficient  Atom+Function         Bfn.  Coefficient  Atom+Function  
  ----- ------------  ---------------      ----- ------------  ---------------
    97    -33.164233   3 C  s               189     33.164630   5 C  s         
    51     31.538866   2 C  s               235    -31.542049   6 C  s         
    96    -14.386599   3 C  s               188     14.386268   5 C  s         
   279     10.795095   7 H  s               371    -10.794197  11 H  s         
   302    -10.655739   8 H  s               348     10.655555  10 H  s         
 
 Vector   60  Occ=0.000000D+00  E= 2.434520D-01
              MO Center=  2.7D-03, -4.3D-02,  1.5D-03, r^2= 1.5D+01
   Bfn.  Coefficient  Atom+Function         Bfn.  Coefficient  Atom+Function  
  ----- ------------  ---------------      ----- ------------  ---------------
   152      3.413881   4 C  pz               14     -3.025850   1 C  pz        
   289      2.170861   7 H  pz              381      2.170874  11 H  pz        
   335     -2.124813   9 H  pz              261      2.001806   6 C  d  1      
    77     -1.987139   2 C  d  1             63     -1.598061   2 C  pz        
   247     -1.597989   6 C  pz              155      1.369899   4 C  pz        
 
 Vector   61  Occ=0.000000D+00  E= 2.594980D-01
              MO Center=  3.8D-02, -6.0D-01, -3.5D-05, r^2= 1.7D+01
   Bfn.  Coefficient  Atom+Function         Bfn.  Coefficient  Atom+Function  
  ----- ------------  ---------------      ----- ------------  ---------------
     5      8.707489   1 C  s               108     -6.644001   3 C  py        
   200     -6.054429   5 C  py              303     -5.178378   8 H  s         
   349     -5.178313  10 H  s               199      5.077431   5 C  px        
   197     -4.838162   5 C  py              143     -4.802986   4 C  s         
   105     -4.736365   3 C  py              154      4.358575   4 C  py        
 
 Vector   62  Occ=0.000000D+00  E= 2.620259D-01
              MO Center=  6.8D-02, -1.1D+00,  2.7D-03, r^2= 1.7D+01
   Bfn.  Coefficient  Atom+Function         Bfn.  Coefficient  Atom+Function  
  ----- ------------  ---------------      ----- ------------  ---------------
     5     18.962254   1 C  s               154     15.381075   4 C  py        
   143     15.152871   4 C  s                51    -14.561866   2 C  s         
   235    -14.563029   6 C  s               326      9.187630   9 H  s         
     4      6.019038   1 C  s               108     -4.777751   3 C  py        
    97     -4.661127   3 C  s               189     -4.659804   5 C  s         
 
 Vector   63  Occ=0.000000D+00  E= 2.676759D-01
              MO Center= -2.7D-02,  4.3D-01, -6.8D-04, r^2= 2.0D+01
   Bfn.  Coefficient  Atom+Function         Bfn.  Coefficient  Atom+Function  
  ----- ------------  ---------------      ----- ------------  ---------------
    51     20.195878   2 C  s               235    -20.195560   6 C  s         
    97    -11.909197   3 C  s               189     11.909556   5 C  s         
    61     11.014279   2 C  px              245     10.263378   6 C  px        
    96     -8.756310   3 C  s               188      8.756586   5 C  s         
   279      8.764683   7 H  s               371     -8.764956  11 H  s         
 
 Vector   64  Occ=0.000000D+00  E= 2.747983D-01
              MO Center= -1.5D-03,  2.3D-02, -2.6D-03, r^2= 1.4D+01
   Bfn.  Coefficient  Atom+Function         Bfn.  Coefficient  Atom+Function  
  ----- ------------  ---------------      ----- ------------  ---------------
   143      8.949801   4 C  s                 5      8.702814   1 C  s         
   154      5.767361   4 C  py              279     -5.655230   7 H  s         
   371     -5.654732  11 H  s               302     -4.649104   8 H  s         
   348     -4.648731  10 H  s               325     -4.357599   9 H  s         
    16     -4.033028   1 C  py              246      3.262296   6 C  py        
 
 Vector   65  Occ=0.000000D+00  E= 2.829787D-01
              MO Center= -1.2D-02,  1.8D-01,  8.7D-04, r^2= 1.6D+01
   Bfn.  Coefficient  Atom+Function         Bfn.  Coefficient  Atom+Function  
  ----- ------------  ---------------      ----- ------------  ---------------
    12      9.530177   1 C  px               97      8.895849   3 C  s         
   189     -8.895873   5 C  s               302      8.100568   8 H  s         
   348     -8.100181  10 H  s                51     -8.023524   2 C  s         
   235      8.022972   6 C  s               199      7.633130   5 C  px        
   107      7.160969   3 C  px              150      6.193889   4 C  px        
 
 Vector   66  Occ=0.000000D+00  E= 2.954386D-01
              MO Center= -3.3D-03,  5.2D-02, -7.2D-04, r^2= 1.6D+01
   Bfn.  Coefficient  Atom+Function         Bfn.  Coefficient  Atom+Function  
  ----- ------------  ---------------      ----- ------------  ---------------
    63      3.201406   2 C  pz              109     -3.188646   3 C  pz        
   201      3.188279   5 C  pz              247     -3.201162   6 C  pz        
   289     -2.279495   7 H  pz              381      2.279515  11 H  pz        
    60      2.256867   2 C  pz              244     -2.256867   6 C  pz        
   312      2.261825   8 H  pz              358     -2.261728  10 H  pz        
 
 Vector   67  Occ=0.000000D+00  E= 2.962829D-01
              MO Center= -6.0D-02,  9.6D-01, -2.4D-04, r^2= 1.4D+01
   Bfn.  Coefficient  Atom+Function         Bfn.  Coefficient  Atom+Function  
  ----- ------------  ---------------      ----- ------------  ---------------
     4     10.427466   1 C  s                59     -5.742749   2 C  py        
   243     -5.634140   6 C  py                5      5.529801   1 C  s         
   105     -5.529171   3 C  py              197     -5.140804   5 C  py        
    16      4.276034   1 C  py              279     -4.187986   7 H  s         
   371     -4.187624  11 H  s                13      3.915774   1 C  py        
 
 Vector   68  Occ=0.000000D+00  E= 3.080391D-01
              MO Center=  1.7D-02, -2.7D-01,  2.3D-03, r^2= 1.5D+01
   Bfn.  Coefficient  Atom+Function         Bfn.  Coefficient  Atom+Function  
  ----- ------------  ---------------      ----- ------------  ---------------
   155      5.177908   4 C  pz               14      4.363333   1 C  pz        
   109     -3.739361   3 C  pz              201     -3.739512   5 C  pz        
   335     -2.710287   9 H  pz               60     -2.049531   2 C  pz        
   244     -2.049420   6 C  pz              152      1.852439   4 C  pz        
    17      1.841702   1 C  pz               29     -1.719283   1 C  d -1      
 
 Vector   69  Occ=0.000000D+00  E= 3.150473D-01
              MO Center=  4.7D-03, -7.3D-02, -1.1D-03, r^2= 9.1D+00
   Bfn.  Coefficient  Atom+Function         Bfn.  Coefficient  Atom+Function  
  ----- ------------  ---------------      ----- ------------  ---------------
   261      1.253006   6 C  d  1             77      1.133270   2 C  d  1      
   169     -1.083443   4 C  d  1             75     -1.023735   2 C  d -1      
   259      0.873439   6 C  d -1            289     -0.721070   7 H  pz        
   381      0.721081  11 H  pz               31      0.634689   1 C  d  1      
    60     -0.336603   2 C  pz              244      0.336834   6 C  pz        
 
 Vector   70  Occ=0.000000D+00  E= 3.284734D-01
              MO Center=  3.9D-02, -6.2D-01,  4.1D-03, r^2= 1.5D+01
   Bfn.  Coefficient  Atom+Function         Bfn.  Coefficient  Atom+Function  
  ----- ------------  ---------------      ----- ------------  ---------------
   142     12.139405   4 C  s                96      8.718857   3 C  s         
   188      8.718946   5 C  s               151     -6.841960   4 C  py        
   325     -5.844181   9 H  s                 4     -5.241455   1 C  s         
   334     -5.006576   9 H  py                5      4.913067   1 C  s         
   302     -4.388370   8 H  s               348     -4.387806  10 H  s         
 
 Vector   71  Occ=0.000000D+00  E= 3.347495D-01
              MO Center= -1.6D-03,  2.6D-02, -5.6D-03, r^2= 7.7D+00
   Bfn.  Coefficient  Atom+Function         Bfn.  Coefficient  Atom+Function  
  ----- ------------  ---------------      ----- ------------  ---------------
   289      2.028492   7 H  pz              381      2.028624  11 H  pz        
   335      1.839324   9 H  pz               14     -1.772806   1 C  pz        
   155     -1.701642   4 C  pz               63     -1.543726   2 C  pz        
   247     -1.543753   6 C  pz               77     -1.511959   2 C  d  1      
   261      1.411910   6 C  d  1            106     -1.285174   3 C  pz        
 
 Vector   72  Occ=0.000000D+00  E= 3.433146D-01
              MO Center=  2.4D-02, -3.9D-01, -2.7D-03, r^2= 1.2D+01
   Bfn.  Coefficient  Atom+Function         Bfn.  Coefficient  Atom+Function  
  ----- ------------  ---------------      ----- ------------  ---------------
   169      3.294221   4 C  d  1             31      2.702815   1 C  d  1      
   312     -2.480840   8 H  pz              358      2.480542  10 H  pz        
   123      2.184729   3 C  d  1            215      2.144149   5 C  d  1      
   106     -1.797508   3 C  pz              198      1.797522   5 C  pz        
   289     -1.428047   7 H  pz              381      1.427889  11 H  pz        
 
 Vector   73  Occ=0.000000D+00  E= 3.449263D-01
              MO Center= -3.6D-02,  5.6D-01,  3.0D-03, r^2= 1.2D+01
   Bfn.  Coefficient  Atom+Function         Bfn.  Coefficient  Atom+Function  
  ----- ------------  ---------------      ----- ------------  ---------------
   143     23.707860   4 C  s               325    -13.019107   9 H  s         
   279     11.903942   7 H  s               371     11.906970  11 H  s         
    51    -11.761698   2 C  s               235    -11.769239   6 C  s         
     5     -7.680029   1 C  s               197     -6.908207   5 C  py        
   105     -6.788368   3 C  py              243     -6.022304   6 C  py        
 
 Vector   74  Occ=0.000000D+00  E= 3.478285D-01
              MO Center=  9.7D-03, -1.5D-01,  8.6D-03, r^2= 1.2D+01
   Bfn.  Coefficient  Atom+Function         Bfn.  Coefficient  Atom+Function  
  ----- ------------  ---------------      ----- ------------  ---------------
    51     21.172256   2 C  s               235    -21.170972   6 C  s         
   302    -11.980945   8 H  s               348     11.983948  10 H  s         
    97     10.956126   3 C  s               189    -10.958613   5 C  s         
   279     -9.764258   7 H  s               371      9.757453  11 H  s         
    12     -8.093288   1 C  px              150     -7.037893   4 C  px        
 
 Vector   75  Occ=0.000000D+00  E= 3.481638D-01
              MO Center=  3.3D-02, -5.2D-01, -1.3D-03, r^2= 1.3D+01
   Bfn.  Coefficient  Atom+Function         Bfn.  Coefficient  Atom+Function  
  ----- ------------  ---------------      ----- ------------  ---------------
   155     -3.973721   4 C  pz               17      3.783871   1 C  pz        
   109      3.563818   3 C  pz              201      3.563842   5 C  pz        
    63     -3.453749   2 C  pz              247     -3.453929   6 C  pz        
   152     -3.002141   4 C  pz              213     -2.309932   5 C  d -1      
   289      2.267839   7 H  pz              381      2.267508  11 H  pz        
 
 Vector   76  Occ=0.000000D+00  E= 3.527403D-01
              MO Center=  3.3D-02, -5.2D-01, -3.8D-03, r^2= 1.4D+01
   Bfn.  Coefficient  Atom+Function         Bfn.  Coefficient  Atom+Function  
  ----- ------------  ---------------      ----- ------------  ---------------
    17      6.391376   1 C  pz               63     -5.860130   2 C  pz        
   247     -5.860202   6 C  pz              109      5.126893   3 C  pz        
   201      5.126914   5 C  pz              155     -4.854152   4 C  pz        
   335      3.959369   9 H  pz               14      3.795467   1 C  pz        
   167      3.077068   4 C  d -1             60     -2.683327   2 C  pz        
 
 Vector   77  Occ=0.000000D+00  E= 3.546422D-01
              MO Center= -2.0D-02,  3.1D-01, -1.5D-03, r^2= 1.5D+01
   Bfn.  Coefficient  Atom+Function         Bfn.  Coefficient  Atom+Function  
  ----- ------------  ---------------      ----- ------------  ---------------
     5     31.339775   1 C  s               143     15.879306   4 C  s         
    51    -15.733388   2 C  s               235    -15.731347   6 C  s         
   151    -11.066004   4 C  py              196     -7.592482   5 C  px        
    50      7.379631   2 C  s               234      7.378964   6 C  s         
    13      7.269789   1 C  py              104      7.152214   3 C  px        
 
 Vector   78  Occ=0.000000D+00  E= 3.599037D-01
              MO Center= -4.7D-02,  7.5D-01, -5.4D-04, r^2= 1.3D+01
   Bfn.  Coefficient  Atom+Function         Bfn.  Coefficient  Atom+Function  
  ----- ------------  ---------------      ----- ------------  ---------------
   289      3.405972   7 H  pz              381     -3.406034  11 H  pz        
    60      3.157584   2 C  pz              244     -3.157655   6 C  pz        
    77     -3.083511   2 C  d  1            121     -3.087962   3 C  d -1      
   259      3.025405   6 C  d -1            213      2.786603   5 C  d -1      
   312     -2.763510   8 H  pz              358      2.763356  10 H  pz        
 
 Vector   79  Occ=0.000000D+00  E= 3.685611D-01
              MO Center=  3.6D-02, -5.7D-01,  8.4D-04, r^2= 1.3D+01
   Bfn.  Coefficient  Atom+Function         Bfn.  Coefficient  Atom+Function  
  ----- ------------  ---------------      ----- ------------  ---------------
    96     10.730982   3 C  s               188     10.729657   5 C  s         
   104     -8.499051   3 C  px              196      8.489513   5 C  px        
   142     -7.535772   4 C  s                 5      7.224796   1 C  s         
   212      5.397298   5 C  d -2            258      5.319313   6 C  d -2      
   120     -5.226056   3 C  d -2            242     -5.088862   6 C  px        
 
 Vector   80  Occ=0.000000D+00  E= 3.720969D-01
              MO Center=  2.0D-02, -3.1D-01,  1.7D-03, r^2= 1.3D+01
   Bfn.  Coefficient  Atom+Function         Bfn.  Coefficient  Atom+Function  
  ----- ------------  ---------------      ----- ------------  ---------------
    97      9.833694   3 C  s               189     -9.832583   5 C  s         
    50      9.031111   2 C  s               234     -9.030727   6 C  s         
   279     -5.478318   7 H  s               371      5.480768  11 H  s         
   357      5.246943  10 H  py              311     -5.125697   8 H  py        
   212     -4.882206   5 C  d -2             51     -4.812685   2 C  s         
 
 Vector   81  Occ=0.000000D+00  E= 3.819124D-01
              MO Center=  3.6D-02, -5.7D-01, -1.2D-03, r^2= 1.6D+01
   Bfn.  Coefficient  Atom+Function         Bfn.  Coefficient  Atom+Function  
  ----- ------------  ---------------      ----- ------------  ---------------
   166      9.080251   4 C  d -2            333      7.118423   9 H  px        
   150     -6.661812   4 C  px              216     -6.554379   5 C  d  2      
   124      6.099306   3 C  d  2            279      5.868110   7 H  s         
   371     -5.868224  11 H  s               310      5.085012   8 H  px        
   356      5.021901  10 H  px               96     -4.807420   3 C  s         
 
 Vector   82  Occ=0.000000D+00  E= 3.932702D-01
              MO Center= -2.9D-02,  4.6D-01, -1.0D-02, r^2= 1.5D+01
   Bfn.  Coefficient  Atom+Function         Bfn.  Coefficient  Atom+Function  
  ----- ------------  ---------------      ----- ------------  ---------------
    12     12.180498   1 C  px               51    -11.054023   2 C  s         
   235     11.056342   6 C  s                78     -9.085787   2 C  d  2      
   262      8.755971   6 C  d  2             15     -6.830972   1 C  px        
   216      6.675055   5 C  d  2            153     -5.863843   4 C  px        
   124     -5.832424   3 C  d  2            379     -5.815961  11 H  px        
 
 Vector   83  Occ=0.000000D+00  E= 3.960224D-01
              MO Center= -5.2D-02,  8.3D-01, -7.8D-03, r^2= 1.2D+01
   Bfn.  Coefficient  Atom+Function         Bfn.  Coefficient  Atom+Function  
  ----- ------------  ---------------      ----- ------------  ---------------
   152     -7.529416   4 C  pz              106      7.333380   3 C  pz        
   198      7.333528   5 C  pz               60     -6.477820   2 C  pz        
   244     -6.477838   6 C  pz              167     -6.331624   4 C  d -1      
   215      5.116795   5 C  d  1            123     -4.710585   3 C  d  1      
    14      4.570828   1 C  pz              259      4.024805   6 C  d -1      
 
 Vector   84  Occ=0.000000D+00  E= 4.017292D-01
              MO Center= -3.3D-02,  5.2D-01,  1.6D-02, r^2= 1.5D+01
   Bfn.  Coefficient  Atom+Function         Bfn.  Coefficient  Atom+Function  
  ----- ------------  ---------------      ----- ------------  ---------------
     5     51.782727   1 C  s                51    -19.809370   2 C  s         
   235    -19.802183   6 C  s                97    -17.393668   3 C  s         
   189    -17.393632   5 C  s               143     11.711253   4 C  s         
   142    -10.271026   4 C  s                 4     -9.670508   1 C  s         
    50     -7.935098   2 C  s               234     -7.935181   6 C  s         
 
 Vector   85  Occ=0.000000D+00  E= 4.053039D-01
              MO Center= -5.3D-03,  8.5D-02, -4.1D-03, r^2= 1.3D+01
   Bfn.  Coefficient  Atom+Function         Bfn.  Coefficient  Atom+Function  
  ----- ------------  ---------------      ----- ------------  ---------------
[...]
     Occ.   20 beta  a   ---  Virt.   22 beta  a   -0.14466 X
  ----------------------------------------------------------------------------
  Root  27         a              0.251973112 a.u.                6.8565 eV 
  <S2> =   1.6619
  ----------------------------------------------------------------------------
     Transition Moments    X  0.00036   Y -0.00575   Z -0.24502
     Transition Moments   XX -0.00020  XY  0.00109  XZ  0.01065
     Transition Moments   YY -0.01609  YZ -0.16708  ZZ -0.00269
     Dipole Oscillator Strength                    0.0100905927
     Electric Quadrupole                           0.0000000024
     Magnetic Dipole                               0.0000000311
     Total Oscillator Strength                     0.0100906262
 
     Occ.   19 alpha a   ---  Virt.   26 alpha a   -0.98229 X
     Occ.   19 alpha a   ---  Virt.   35 alpha a    0.07115 X
     Occ.   19 alpha a   ---  Virt.   36 alpha a    0.07362 X
     Occ.   20 alpha a   ---  Virt.   25 alpha a   -0.11468 X
     Occ.   20 beta  a   ---  Virt.   26 beta  a   -0.05037 X
  ----------------------------------------------------------------------------
  Root  28         a              0.252620756 a.u.                6.8742 eV 
  <S2> =   1.8891
  ----------------------------------------------------------------------------
     Transition Moments    X -0.01183   Y -0.00073   Z  0.00006
     Transition Moments   XX -0.00034  XY  0.00281  XZ  0.39292
     Transition Moments   YY  0.00037  YZ  0.02479  ZZ  0.00001
     Dipole Oscillator Strength                    0.0000236717
     Electric Quadrupole                           0.0000000133
     Magnetic Dipole                               0.0000000096
     Total Oscillator Strength                     0.0000236945
 
     Occ.   19 alpha a   ---  Virt.   25 alpha a   -0.24741 X
     Occ.   20 alpha a   ---  Virt.   26 alpha a   -0.96032 X
     Occ.   20 alpha a   ---  Virt.   35 alpha a    0.06154 X
     Occ.   20 alpha a   ---  Virt.   36 alpha a    0.06546 X
     Occ.   19 beta  a   ---  Virt.   26 beta  a    0.06474 X
  ----------------------------------------------------------------------------
  Root  29         a              0.253986756 a.u.                6.9113 eV 
  <S2> =   1.6186
  ----------------------------------------------------------------------------
     Transition Moments    X  0.03149   Y  0.00194   Z -0.00000
     Transition Moments   XX  0.00089  XY -0.00729  XZ -0.49336
     Transition Moments   YY -0.00101  YZ -0.03110  ZZ -0.00001
     Dipole Oscillator Strength                    0.0001685087
     Electric Quadrupole                           0.0000000213
     Magnetic Dipole                               0.0000000109
     Total Oscillator Strength                     0.0001685409
 
     Occ.   20 alpha a   ---  Virt.   26 alpha a    0.06911 X
     Occ.   19 beta  a   ---  Virt.   26 beta  a    0.98492 X
     Occ.   19 beta  a   ---  Virt.   35 beta  a   -0.05782 X
     Occ.   19 beta  a   ---  Virt.   36 beta  a   -0.07400 X
     Occ.   20 beta  a   ---  Virt.   25 beta  a    0.09684 X
  ----------------------------------------------------------------------------
  Root  30         a              0.254756408 a.u.                6.9323 eV 
  <S2> =   0.7709
  ----------------------------------------------------------------------------
     Transition Moments    X  1.50283   Y  0.09500   Z -0.00001
     Transition Moments   XX  0.02427  XY -0.18978  XZ  0.01845
     Transition Moments   YY -0.02354  YZ  0.00116  ZZ  0.00006
     Dipole Oscillator Strength                    0.3851122071
     Electric Quadrupole                           0.0000000033
     Magnetic Dipole                               0.0000000195
     Total Oscillator Strength                     0.3851122298
 
     Occ.   19 alpha a   ---  Virt.   22 alpha a    0.37997 X
     Occ.   19 alpha a   ---  Virt.   22 alpha a   -0.05309 Y
     Occ.   20 alpha a   ---  Virt.   23 alpha a   -0.42664 X
     Occ.   20 alpha a   ---  Virt.   23 alpha a    0.05107 Y
     Occ.   20 alpha a   ---  Virt.   29 alpha a    0.14079 X
     Occ.   21 alpha a   ---  Virt.   25 alpha a   -0.07641 X
     Occ.   21 alpha a   ---  Virt.   27 alpha a    0.38961 X
     Occ.   13 beta  a   ---  Virt.   21 beta  a   -0.12796 X
     Occ.   15 beta  a   ---  Virt.   21 beta  a   -0.27036 X
     Occ.   19 beta  a   ---  Virt.   23 beta  a    0.16595 X
     Occ.   19 beta  a   ---  Virt.   24 beta  a   -0.46998 X
     Occ.   19 beta  a   ---  Virt.   29 beta  a    0.13909 X
     Occ.   20 beta  a   ---  Virt.   22 beta  a    0.34827 X
     Occ.   20 beta  a   ---  Virt.   22 beta  a   -0.05609 Y
  ----------------------------------------------------------------------------
  Root  31         a              0.255405789 a.u.                6.9499 eV 
  <S2> =   0.8012
  ----------------------------------------------------------------------------
     Transition Moments    X -0.04057   Y  0.63625   Z -0.00074
     Transition Moments   XX  0.65024  XY -0.07811  XZ -0.00029
     Transition Moments   YY  1.88559  YZ  0.00387  ZZ  0.14659
     Dipole Oscillator Strength                    0.0692082781
     Electric Quadrupole                           0.0000000716
     Magnetic Dipole                               0.0000000000
     Total Oscillator Strength                     0.0692083496
 
     Occ.   19 alpha a   ---  Virt.   23 alpha a   -0.10546 X
     Occ.   20 alpha a   ---  Virt.   22 alpha a   -0.11462 X
     Occ.   21 alpha a   ---  Virt.   26 alpha a   -0.18449 X
     Occ.   21 alpha a   ---  Virt.   28 alpha a    0.90983 X
     Occ.   21 alpha a   ---  Virt.   30 alpha a    0.12846 X
     Occ.   21 alpha a   ---  Virt.   31 alpha a    0.16278 X
     Occ.   21 alpha a   ---  Virt.   48 alpha a   -0.05656 X
     Occ.   16 beta  a   ---  Virt.   21 beta  a   -0.18857 X
     Occ.   19 beta  a   ---  Virt.   22 beta  a   -0.10931 X
     Occ.   20 beta  a   ---  Virt.   24 beta  a   -0.09089 X
  ----------------------------------------------------------------------------
  Root  32         a              0.260752577 a.u.                7.0954 eV 
  <S2> =   0.8001
  ----------------------------------------------------------------------------
     Transition Moments    X  0.00071   Y -0.01122   Z  0.09560
     Transition Moments   XX -0.00477  XY  0.00064  XZ -0.04441
     Transition Moments   YY -0.01506  YZ  0.70492  ZZ  0.00015
     Dipole Oscillator Strength                    0.0016105944
     Electric Quadrupole                           0.0000000471
     Magnetic Dipole                               0.0000000330
     Total Oscillator Strength                     0.0016106744
 
     Occ.   21 alpha a   ---  Virt.   29 alpha a   -0.97945 X
     Occ.   21 alpha a   ---  Virt.   33 alpha a   -0.17996 X
  ----------------------------------------------------------------------------
  Root  33         a              0.265400269 a.u.                7.2219 eV 
  <S2> =   1.7807
  ----------------------------------------------------------------------------
     Transition Moments    X  0.00260   Y  0.00016   Z -0.00000
     Transition Moments   XX -0.00001  XY  0.00071  XZ -0.54580
     Transition Moments   YY  0.00010  YZ -0.03440  ZZ  0.00003
     Dipole Oscillator Strength                    0.0000011962
     Electric Quadrupole                           0.0000000298
     Magnetic Dipole                               0.0000000006
     Total Oscillator Strength                     0.0000012265
 
     Occ.   20 beta  a   ---  Virt.   27 beta  a   -0.99103 X
     Occ.   20 beta  a   ---  Virt.   38 beta  a    0.09649 X
  ----------------------------------------------------------------------------
  Root  34         a              0.267189453 a.u.                7.2706 eV 
  <S2> =   0.8217
  ----------------------------------------------------------------------------
     Transition Moments    X -0.07577   Y  1.20078   Z  0.00015
     Transition Moments   XX -0.01907  XY  0.04277  XZ -0.00059
     Transition Moments   YY -0.69485  YZ  0.00917  ZZ -0.04605
     Dipole Oscillator Strength                    0.2578569024
     Electric Quadrupole                           0.0000000151
     Magnetic Dipole                               0.0000000000
     Total Oscillator Strength                     0.2578569175
 
     Occ.   17 alpha a   ---  Virt.   23 alpha a    0.08608 X
     Occ.   19 alpha a   ---  Virt.   23 alpha a   -0.30510 X
     Occ.   19 alpha a   ---  Virt.   29 alpha a   -0.16159 X
     Occ.   20 alpha a   ---  Virt.   22 alpha a   -0.22283 X
     Occ.   21 alpha a   ---  Virt.   28 alpha a   -0.30119 X
     Occ.   21 alpha a   ---  Virt.   30 alpha a    0.42757 X
     Occ.   21 alpha a   ---  Virt.   31 alpha a   -0.08025 X
     Occ.   14 beta  a   ---  Virt.   21 beta  a    0.08799 X
     Occ.   16 beta  a   ---  Virt.   21 beta  a   -0.50156 X
     Occ.   19 beta  a   ---  Virt.   22 beta  a   -0.22350 X
     Occ.   20 beta  a   ---  Virt.   23 beta  a    0.10227 X
     Occ.   20 beta  a   ---  Virt.   24 beta  a   -0.28988 X
     Occ.   20 beta  a   ---  Virt.   29 beta  a   -0.34431 X
  ----------------------------------------------------------------------------
  Root  35         a              0.270808528 a.u.                7.3691 eV 
  <S2> =   2.7047
  ----------------------------------------------------------------------------
     Transition Moments    X -0.00020   Y  0.00343   Z -0.00954
     Transition Moments   XX -0.00252  XY -0.00023  XZ  0.00960
     Transition Moments   YY  0.00110  YZ -0.15170  ZZ -0.00048
     Dipole Oscillator Strength                    0.0000185678
     Electric Quadrupole                           0.0000000024
     Magnetic Dipole                               0.0000000000
     Total Oscillator Strength                     0.0000185702
 
     Occ.   20 alpha a   ---  Virt.   27 alpha a    0.79698 X
     Occ.   20 alpha a   ---  Virt.   38 alpha a   -0.08795 X
     Occ.   19 beta  a   ---  Virt.   27 beta  a   -0.57694 X
     Occ.   19 beta  a   ---  Virt.   38 beta  a    0.06823 X
     Occ.   20 beta  a   ---  Virt.   28 beta  a   -0.05378 X
     Occ.   20 beta  a   ---  Virt.   30 beta  a   -0.06116 X
  ----------------------------------------------------------------------------
  Root  36         a              0.271252789 a.u.                7.3812 eV 
  <S2> =   2.7408
  ----------------------------------------------------------------------------
     Transition Moments    X  0.04869   Y  0.00302   Z  0.00001
     Transition Moments   XX  0.00376  XY -0.02853  XZ  0.00110
     Transition Moments   YY -0.00373  YZ  0.00017  ZZ  0.00004
     Dipole Oscillator Strength                    0.0004304093
     Electric Quadrupole                           0.0000000001
     Magnetic Dipole                               0.0000000018
     Total Oscillator Strength                     0.0004304112
 
     Occ.   17 alpha a   ---  Virt.   22 alpha a    0.59781 X
     Occ.   17 alpha a   ---  Virt.   41 alpha a   -0.05240 X
     Occ.   19 alpha a   ---  Virt.   32 alpha a   -0.08385 X
     Occ.   20 alpha a   ---  Virt.   29 alpha a    0.16432 X
     Occ.   20 alpha a   ---  Virt.   44 alpha a   -0.22729 X
     Occ.   20 alpha a   ---  Virt.   47 alpha a    0.17407 X
     Occ.   17 beta  a   ---  Virt.   22 beta  a   -0.64454 X
     Occ.   17 beta  a   ---  Virt.   41 beta  a    0.05433 X
     Occ.   19 beta  a   ---  Virt.   29 beta  a   -0.10211 X
     Occ.   19 beta  a   ---  Virt.   44 beta  a    0.20062 X
     Occ.   19 beta  a   ---  Virt.   47 beta  a   -0.16662 X
     Occ.   20 beta  a   ---  Virt.   31 beta  a    0.10177 X
  ----------------------------------------------------------------------------
  Root  37         a              0.271754585 a.u.                7.3948 eV 
  <S2> =   1.0534
  ----------------------------------------------------------------------------
     Transition Moments    X -0.03212   Y  0.50944   Z  0.00363
     Transition Moments   XX -1.04732  XY -0.11387  XZ -0.00577
     Transition Moments   YY  0.75248  YZ  0.09127  ZZ -0.23889
     Dipole Oscillator Strength                    0.0472073894
     Electric Quadrupole                           0.0000000891
     Magnetic Dipole                               0.0000000000
     Total Oscillator Strength                     0.0472074785
 
     Occ.   17 alpha a   ---  Virt.   23 alpha a    0.06216 X
     Occ.   19 alpha a   ---  Virt.   23 alpha a   -0.09047 X
     Occ.   21 alpha a   ---  Virt.   30 alpha a   -0.79426 X
     Occ.   21 alpha a   ---  Virt.   31 alpha a    0.20463 X
     Occ.   21 alpha a   ---  Virt.   35 alpha a   -0.07402 X
     Occ.   21 alpha a   ---  Virt.   40 alpha a    0.05646 X
     Occ.   14 beta  a   ---  Virt.   21 beta  a    0.06287 X
     Occ.   16 beta  a   ---  Virt.   21 beta  a   -0.18739 X
     Occ.   19 beta  a   ---  Virt.   22 beta  a   -0.05804 X
     Occ.   19 beta  a   ---  Virt.   27 beta  a   -0.05933 X
     Occ.   20 beta  a   ---  Virt.   24 beta  a   -0.09059 X
     Occ.   20 beta  a   ---  Virt.   29 beta  a   -0.48341 X
  ----------------------------------------------------------------------------
  Root  38         a              0.271807664 a.u.                7.3963 eV 
  <S2> =   0.8299
  ----------------------------------------------------------------------------
     Transition Moments    X  0.00271   Y -0.04294   Z  0.02466
     Transition Moments   XX  0.08425  XY  0.00894  XZ -0.05480
     Transition Moments   YY -0.05775  YZ  0.86797  ZZ  0.01811
     Dipole Oscillator Strength                    0.0004456594
     Electric Quadrupole                           0.0000000814
     Magnetic Dipole                               0.0000000039
     Total Oscillator Strength                     0.0004457447
 
     Occ.   20 alpha a   ---  Virt.   27 alpha a   -0.57223 X
     Occ.   21 alpha a   ---  Virt.   30 alpha a    0.06177 X
     Occ.   19 beta  a   ---  Virt.   27 beta  a   -0.79836 X
     Occ.   19 beta  a   ---  Virt.   38 beta  a    0.07489 X
     Occ.   20 beta  a   ---  Virt.   28 beta  a    0.12466 X
  ----------------------------------------------------------------------------
  Root  39         a              0.272285074 a.u.                7.4093 eV 
  <S2> =   1.7261
  ----------------------------------------------------------------------------
     Transition Moments    X -0.00084   Y -0.00006   Z  0.00002
     Transition Moments   XX  0.00026  XY -0.00267  XZ  0.54901
     Transition Moments   YY -0.00033  YZ  0.03488  ZZ -0.00003
     Dipole Oscillator Strength                    0.0000001276
     Electric Quadrupole                           0.0000000325
     Magnetic Dipole                               0.0000000013
     Total Oscillator Strength                     0.0000001615
 
     Occ.   19 alpha a   ---  Virt.   27 alpha a    0.99033 X
     Occ.   19 alpha a   ---  Virt.   38 alpha a   -0.09593 X
  ----------------------------------------------------------------------------
  Root  40         a              0.272508447 a.u.                7.4153 eV 
  <S2> =   1.9598
  ----------------------------------------------------------------------------
     Transition Moments    X -0.00246   Y  0.03916   Z -0.04142
     Transition Moments   XX -0.06349  XY -0.00656  XZ  0.02781
     Transition Moments   YY  0.04007  YZ -0.43918  ZZ -0.00885
     Dipole Oscillator Strength                    0.0005912441
     Electric Quadrupole                           0.0000000212
     Magnetic Dipole                               0.0000000052
     Total Oscillator Strength                     0.0005912705
 
     Occ.   19 alpha a   ---  Virt.   28 alpha a    0.11715 X
     Occ.   20 alpha a   ---  Virt.   27 alpha a   -0.12629 X
     Occ.   17 beta  a   ---  Virt.   21 beta  a    0.05482 X
     Occ.   19 beta  a   ---  Virt.   27 beta  a   -0.06724 X
     Occ.   20 beta  a   ---  Virt.   28 beta  a   -0.96833 X
     Occ.   20 beta  a   ---  Virt.   30 beta  a   -0.05571 X
     Occ.   20 beta  a   ---  Virt.   32 beta  a   -0.07448 X
     Occ.   20 beta  a   ---  Virt.   43 beta  a   -0.08080 X
 
              Target root =      1
          Target symmetry = none
      Ground state energy =   -231.646326164867
        Excitation energy =      0.106293081144
     Excited state energy =   -231.540033083723
 
  stored tddft:energy   -231.540033083723     

 Task  times  cpu:     3838.6s     wall:     3959.9s
 
 
                                NWChem Input Module
                                -------------------
 
 
 Summary of allocated global arrays
-----------------------------------
  No active global arrays



                         GA Statistics for process    0
                         ------------------------------

       create   destroy   get      put      acc     scatter   gather  read&inc
calls: 9587     9587     1.04e+07 4.06e+06 2.83e+06 5680        0      339     
number of processes/call 1.31e+00 1.75e+00 1.92e+00 0.00e+00 0.00e+00
bytes total:             9.56e+10 1.10e+10 1.02e+11 6.26e+04 0.00e+00 2.71e+03
bytes remote:            7.14e+10 1.11e+09 9.70e+10 0.00e+00 0.00e+00 0.00e+00
Max memory consumed for GA by this process: 205086464 bytes
 
MA_summarize_allocated_blocks: starting scan ...
MA_summarize_allocated_blocks: scan completed: 0 heap blocks, 0 stack blocks
MA usage statistics:

	allocation statistics:
					      heap	     stack
					      ----	     -----
	current number of blocks	         0	         0
	maximum number of blocks	        20	        52
	current total bytes		         0	         0
	maximum total bytes		   1166000	  68276408
	maximum total K-bytes		      1166	     68277
	maximum total M-bytes		         2	        69
 
 
                                     CITATION
                                     --------
                Please cite the following reference when publishing
                           results obtained with NWChem:
 
                 M. Valiev, E.J. Bylaska, N. Govind, K. Kowalski,
              T.P. Straatsma, H.J.J. van Dam, D. Wang, J. Nieplocha,
                        E. Apra, T.L. Windus, W.A. de Jong
                 "NWChem: a comprehensive and scalable open-source
                  solution for large scale molecular simulations"
                      Comput. Phys. Commun. 181, 1477 (2010)
                           doi:10.1016/j.cpc.2010.04.018
 
                                      AUTHORS
                                      -------
          E. Apra, E. J. Bylaska, W. A. de Jong, N. Govind, K. Kowalski,
       T. P. Straatsma, M. Valiev, H. J. J. van Dam, D. Wang, T. L. Windus,
        J. Hammond, J. Autschbach, K. Bhaskaran-Nair, J. Brabec, K. Lopata,
    S. A. Fischer, S. Krishnamoorthy, M. Jacquelin, W. Ma, M. Klemm, O. Villa,
      Y. Chen, V. Anisimov, F. Aquino, S. Hirata, M. T. Hackler, V. Konjkov,
            D. Mejia-Rodriguez, T. Risthaus, M. Malagoli, A. Marenich,
   A. Otero-de-la-Roza, J. Mullin, P. Nichols, R. Peverati, J. Pittner, Y. Zhao,
        P.-D. Fan, A. Fonari, M. J. Williamson, R. J. Harrison, J. R. Rehr,
      M. Dupuis, D. Silverstein, D. M. A. Smith, J. Nieplocha, V. Tipparaju,
    M. Krishnan, B. E. Van Kuiken, A. Vazquez-Mayagoitia, L. Jensen, M. Swart,
      Q. Wu, T. Van Voorhis, A. A. Auer, M. Nooijen, L. D. Crosby, E. Brown,
      G. Cisneros, G. I. Fann, H. Fruchtl, J. Garza, K. Hirao, R. A. Kendall,
      J. A. Nichols, K. Tsemekhman, K. Wolinski, J. Anchell, D. E. Bernholdt,
      P. Borowski, T. Clark, D. Clerc, H. Dachsel, M. J. O. Deegan, K. Dyall,
    D. Elwood, E. Glendening, M. Gutowski, A. C. Hess, J. Jaffe, B. G. Johnson,
     J. Ju, R. Kobayashi, R. Kutteh, Z. Lin, R. Littlefield, X. Long, B. Meng,
      T. Nakajima, S. Niu, L. Pollack, M. Rosing, K. Glaesemann, G. Sandrone,
      M. Stave, H. Taylor, G. Thomas, J. H. van Lenthe, A. T. Wong, Z. Zhang.

 Total times  cpu:     3838.6s     wall:     3960.0s
