 argument  1 = /storage/home/j/jbb5516/normalModes/mode1569.96-p.nw
 


============================== echo of input deck ==============================
echo
start

title "None"

geometry
C    -0.08744508    1.38787631    0.00000005
C    -1.26730004    0.69218245   -0.00000002
C    -1.16662049   -0.70620771   -0.00000002
C     0.08285514   -1.31502573    0.00000004
C     1.24603415   -0.55419471   -0.00000001
C     1.17039852    0.84577354    0.00000005
H    -2.23263824    1.18052867   -0.00000010
H    -2.06926774   -1.30378230   -0.00000009
H     0.15085591   -2.39429045   -0.00000000
H     2.21654792   -1.03374724   -0.00000013
H     2.06680801    1.45142169   -0.00000010
symmetry c1
end

basis spherical
 * library "aug-cc-pvtz"
end

dft
 direct
 mult 2
 iterations 500
 xc b3lyp
end

tddft
 nroots 40
 notriplet
 algorithm 1
end
task tddft energy
================================================================================


                                         
                                         
 
 
              Northwest Computational Chemistry Package (NWChem) 6.8
              ------------------------------------------------------
 
 
                    Environmental Molecular Sciences Laboratory
                       Pacific Northwest National Laboratory
                                Richland, WA 99352
 
                              Copyright (c) 1994-2017
                       Pacific Northwest National Laboratory
                            Battelle Memorial Institute
 
             NWChem is an open-source computational chemistry package
                        distributed under the terms of the
                      Educational Community License (ECL) 2.0
             A copy of the license is included with this distribution
                              in the LICENSE.TXT file
 
                                  ACKNOWLEDGMENT
                                  --------------

            This software and its documentation were developed at the
            EMSL at Pacific Northwest National Laboratory, a multiprogram
            national laboratory, operated for the U.S. Department of Energy
            by Battelle under Contract Number DE-AC05-76RL01830. Support
            for this work was provided by the Department of Energy Office
            of Biological and Environmental Research, Office of Basic
            Energy Sciences, and the Office of Advanced Scientific Computing.


           Job information
           ---------------

    hostname        = comp-sc-0112.acib.production.int.aci.ics.psu.edu
    program         = /gpfs/group/lxj18/default/jeffprograms/nwchem-6.8.1/bin/LINUX64/nwchem
    date            = Sun Sep 20 17:15:34 2020

    compiled        = Wed_Oct_03_14:08:39_2018
    source          = /gpfs/group/lxj18/default/jeffprograms/nwchem-6.8.1
    nwchem branch   = 6.8.1
    nwchem revision = v6.8-143-gdb0d964
    ga revision     = 5.6.5
    use scalapack   = F
    input           = /storage/home/j/jbb5516/normalModes/mode1569.96-p.nw
    prefix          = mode1569.96-p.
    data base       = ./mode1569.96-p.db
    status          = startup
    nproc           =       20
    time left       =     -1s



           Memory information
           ------------------

    heap     =   13107198 doubles =    100.0 Mbytes
    stack    =   13107195 doubles =    100.0 Mbytes
    global   =   26214400 doubles =    200.0 Mbytes (distinct from heap & stack)
    total    =   52428793 doubles =    400.0 Mbytes
    verify   = yes
    hardfail = no 


           Directory information
           ---------------------
 
  0 permanent = .
  0 scratch   = .
 
 
 
 
                                NWChem Input Module
                                -------------------
 
 
                                       None
                                       ----

 Scaling coordinates for geometry "geometry" by  1.889725989
 (inverse scale =  0.529177249)

 Turning off AUTOSYM since
 SYMMETRY directive was detected!
 

          ------
          auto-z
          ------
 
 
                             Geometry "geometry" -> ""
                             -------------------------
 
 Output coordinates in angstroms (scale by  1.889725989 to convert to a.u.)
 
  No.       Tag          Charge          X              Y              Z
 ---- ---------------- ---------- -------------- -------------- --------------
    1 C                    6.0000    -0.08744115     1.38781399     0.00000005
    2 C                    6.0000    -1.26729611     0.69212013    -0.00000002
    3 C                    6.0000    -1.16661656    -0.70627003    -0.00000002
    4 C                    6.0000     0.08285907    -1.31508805     0.00000004
    5 C                    6.0000     1.24603808    -0.55425703    -0.00000001
    6 C                    6.0000     1.17040245     0.84571122     0.00000005
    7 H                    1.0000    -2.23263431     1.18046635    -0.00000010
    8 H                    1.0000    -2.06926381    -1.30384462    -0.00000009
    9 H                    1.0000     0.15085984    -2.39435277    -0.00000000
   10 H                    1.0000     2.21655185    -1.03380956    -0.00000013
   11 H                    1.0000     2.06681194     1.45135937    -0.00000010
 
      Atomic Mass 
      ----------- 
 
      C                 12.000000
      H                  1.007825
 

 Effective nuclear repulsion energy (a.u.)     195.0636736751

            Nuclear Dipole moment (a.u.) 
            ----------------------------
        X                 Y               Z
 ---------------- ---------------- ----------------
    -0.0000000000    -0.0000000000     0.0000000000
 


                                Z-matrix (autoz)
                                -------- 

 Units are Angstrom for bonds and degrees for angles
 
      Type          Name      I     J     K     L     M      Value
      ----------- --------  ----- ----- ----- ----- ----- ----------
    1 Stretch                  1     2                       1.36969
    2 Stretch                  1     6                       1.36969
    3 Stretch                  2     3                       1.40201
    4 Stretch                  2     7                       1.08183
    5 Stretch                  3     4                       1.38991
    6 Stretch                  3     8                       1.08253
    7 Stretch                  4     5                       1.38991
    8 Stretch                  4     9                       1.08140
    9 Stretch                  5     6                       1.40201
   10 Stretch                  5    10                       1.08253
   11 Stretch                  6    11                       1.08183
   12 Bend                     1     2     3               116.40745
   13 Bend                     1     2     7               122.64057
   14 Bend                     1     6     5               116.40747
   15 Bend                     1     6    11               122.64058
   16 Bend                     2     1     6               126.15957
   17 Bend                     2     3     4               120.09607
   18 Bend                     2     3     8               119.38753
   19 Bend                     3     2     7               120.95198
   20 Bend                     3     4     5               120.83338
   21 Bend                     3     4     9               119.58331
   22 Bend                     4     3     8               120.51640
   23 Bend                     4     5     6               120.09605
   24 Bend                     4     5    10               120.51645
   25 Bend                     5     4     9               119.58330
   26 Bend                     5     6    11               120.95195
   27 Bend                     6     5    10               119.38750
   28 Torsion                  1     2     3     4           0.00000
   29 Torsion                  1     2     3     8        -180.00000
   30 Torsion                  1     6     5     4           0.00000
   31 Torsion                  1     6     5    10         180.00000
   32 Torsion                  2     1     6     5           0.00000
   33 Torsion                  2     1     6    11         180.00000
   34 Torsion                  2     3     4     5           0.00000
   35 Torsion                  2     3     4     9        -180.00000
   36 Torsion                  3     2     1     6           0.00000
   37 Torsion                  3     4     5     6           0.00000
   38 Torsion                  3     4     5    10        -180.00000
   39 Torsion                  4     3     2     7         180.00000
   40 Torsion                  4     5     6    11        -180.00000
   41 Torsion                  5     4     3     8         180.00000
   42 Torsion                  6     1     2     7        -180.00000
   43 Torsion                  6     5     4     9        -180.00000
   44 Torsion                  7     2     3     8           0.00000
   45 Torsion                  8     3     4     9           0.00000
   46 Torsion                  9     4     5    10           0.00000
   47 Torsion                 10     5     6    11           0.00000
 
 
            XYZ format geometry
            -------------------
    11
 geometry
 C                    -0.08744115     1.38781399     0.00000005
 C                    -1.26729611     0.69212013    -0.00000002
 C                    -1.16661656    -0.70627003    -0.00000002
 C                     0.08285907    -1.31508805     0.00000004
 C                     1.24603808    -0.55425703    -0.00000001
 C                     1.17040245     0.84571122     0.00000005
 H                    -2.23263431     1.18046635    -0.00000010
 H                    -2.06926381    -1.30384462    -0.00000009
 H                     0.15085984    -2.39435277    -0.00000000
 H                     2.21655185    -1.03380956    -0.00000013
 H                     2.06681194     1.45135937    -0.00000010
 
 ==============================================================================
                                internuclear distances
 ------------------------------------------------------------------------------
       center one      |      center two      | atomic units |  angstroms
 ------------------------------------------------------------------------------
    2 C                |   1 C                |     2.58834  |     1.36969
    3 C                |   2 C                |     2.64941  |     1.40201
    4 C                |   3 C                |     2.62655  |     1.38991
    5 C                |   4 C                |     2.62655  |     1.38991
    6 C                |   1 C                |     2.58834  |     1.36969
    6 C                |   5 C                |     2.64941  |     1.40201
    7 H                |   2 C                |     2.04437  |     1.08183
    8 H                |   3 C                |     2.04568  |     1.08253
    9 H                |   4 C                |     2.04356  |     1.08140
   10 H                |   5 C                |     2.04568  |     1.08253
   11 H                |   6 C                |     2.04437  |     1.08183
 ------------------------------------------------------------------------------
                         number of included internuclear distances:         11
 ==============================================================================



 ==============================================================================
                                 internuclear angles
 ------------------------------------------------------------------------------
        center 1       |       center 2       |       center 3       |  degrees
 ------------------------------------------------------------------------------
    2 C                |   1 C                |   6 C                |   126.16
    1 C                |   2 C                |   3 C                |   116.41
    1 C                |   2 C                |   7 H                |   122.64
    3 C                |   2 C                |   7 H                |   120.95
    2 C                |   3 C                |   4 C                |   120.10
    2 C                |   3 C                |   8 H                |   119.39
    4 C                |   3 C                |   8 H                |   120.52
    3 C                |   4 C                |   5 C                |   120.83
    3 C                |   4 C                |   9 H                |   119.58
    5 C                |   4 C                |   9 H                |   119.58
    4 C                |   5 C                |   6 C                |   120.10
    4 C                |   5 C                |  10 H                |   120.52
    6 C                |   5 C                |  10 H                |   119.39
    1 C                |   6 C                |   5 C                |   116.41
    1 C                |   6 C                |  11 H                |   122.64
    5 C                |   6 C                |  11 H                |   120.95
 ------------------------------------------------------------------------------
                            number of included internuclear angles:         16
 ==============================================================================





 Summary of "ao basis" -> "" (spherical)
 ------------------------------------------------------------------------------
       Tag                 Description            Shells   Functions and Types
 ---------------- ------------------------------  ------  ---------------------
 *                        aug-cc-pvtz                 on all atoms 


 
                                 NWChem DFT Module
                                 -----------------
 
 
                                       None
 
 
                      Basis "ao basis" -> "ao basis" (spherical)
                      -----
  C (Carbon)
  ----------
            Exponent  Coefficients 
       -------------- ---------------------------------------------------------
  1 S  8.23600000E+03  0.000531
  1 S  1.23500000E+03  0.004108
  1 S  2.80800000E+02  0.021087
  1 S  7.92700000E+01  0.081853
  1 S  2.55900000E+01  0.234817
  1 S  8.99700000E+00  0.434401
  1 S  3.31900000E+00  0.346129
  1 S  3.64300000E-01 -0.008983
 
  2 S  8.23600000E+03 -0.000113
  2 S  1.23500000E+03 -0.000878
  2 S  2.80800000E+02 -0.004540
  2 S  7.92700000E+01 -0.018133
  2 S  2.55900000E+01 -0.055760
  2 S  8.99700000E+00 -0.126895
  2 S  3.31900000E+00 -0.170352
  2 S  3.64300000E-01  0.598684
 
  3 S  9.05900000E-01  1.000000
 
  4 S  1.28500000E-01  1.000000
 
  5 S  4.40200000E-02  1.000000
 
  6 P  1.87100000E+01  0.014031
  6 P  4.13300000E+00  0.086866
  6 P  1.20000000E+00  0.290216
 
  7 P  3.82700000E-01  1.000000
 
  8 P  1.20900000E-01  1.000000
 
  9 P  3.56900000E-02  1.000000
 
 10 D  1.09700000E+00  1.000000
 
 11 D  3.18000000E-01  1.000000
 
 12 D  1.00000000E-01  1.000000
 
 13 F  7.61000000E-01  1.000000
 
 14 F  2.68000000E-01  1.000000
 
  H (Hydrogen)
  ------------
            Exponent  Coefficients 
       -------------- ---------------------------------------------------------
  1 S  3.38700000E+01  0.006068
  1 S  5.09500000E+00  0.045308
  1 S  1.15900000E+00  0.202822
 
  2 S  3.25800000E-01  1.000000
 
  3 S  1.02700000E-01  1.000000
 
  4 S  2.52600000E-02  1.000000
 
  5 P  1.40700000E+00  1.000000
 
  6 P  3.88000000E-01  1.000000
 
  7 P  1.02000000E-01  1.000000
 
  8 D  1.05700000E+00  1.000000
 
  9 D  2.47000000E-01  1.000000
 


 Summary of "ao basis" -> "ao basis" (spherical)
 ------------------------------------------------------------------------------
       Tag                 Description            Shells   Functions and Types
 ---------------- ------------------------------  ------  ---------------------
 C                        aug-cc-pvtz               14       46   5s4p3d2f
 H                        aug-cc-pvtz                9       23   4s3p2d




 Summary of "ao basis" -> "ao basis" (spherical)
 ------------------------------------------------------------------------------
       Tag                 Description            Shells   Functions and Types
 ---------------- ------------------------------  ------  ---------------------
 C                        aug-cc-pvtz               14       46   5s4p3d2f
 H                        aug-cc-pvtz                9       23   4s3p2d


  Caching 1-el integrals 
 
            General Information
            -------------------
          SCF calculation type: DFT
          Wavefunction type:  spin polarized.
          No. of atoms     :    11
          No. of electrons :    41
           Alpha electrons :    21
            Beta electrons :    20
          Charge           :     0
          Spin multiplicity:     2
          Use of symmetry is: off; symmetry adaption is: off
          Maximum number of iterations: 500
          This is a Direct SCF calculation.
          AO basis - number of functions:   391
                     number of shells:   129
          Convergence on energy requested:  1.00D-06
          Convergence on density requested:  1.00D-05
          Convergence on gradient requested:  5.00D-04
 
              XC Information
              --------------
                         B3LYP Method XC Potential
                     Hartree-Fock (Exact) Exchange  0.200          
                        Slater Exchange Functional  0.800 local    
                    Becke 1988 Exchange Functional  0.720 non-local
              Lee-Yang-Parr Correlation Functional  0.810          
                  VWN I RPA Correlation Functional  0.190 local    
 
             Grid Information
             ----------------
          Grid used for XC integration:  medium    
          Radial quadrature: Mura-Knowles        
          Angular quadrature: Lebedev. 
          Tag              B.-S. Rad. Rad. Pts. Rad. Cut. Ang. Pts.
          ---              ---------- --------- --------- ---------
          C                   0.70       49          15.0       434
          H                   0.35       45          17.0       434
          Grid pruning is: on 
          Number of quadrature shells:   519
          Spatial weights used:  Erf1
 
          Convergence Information
          -----------------------
          Convergence aids based upon iterative change in 
          total energy or number of iterations. 
          Levelshifting, if invoked, occurs when the 
          HOMO/LUMO gap drops below (HL_TOL):  1.00D-02
          DIIS, if invoked, will attempt to extrapolate 
          using up to (NFOCK): 10 stored Fock matrices.

                    Damping( 0%)  Levelshifting(0.5)       DIIS
                  --------------- ------------------- ---------------
          dE  on:    start            ASAP                start   
          dE off:    2 iters        500 iters           500 iters 

 
      Screening Tolerance Information
      -------------------------------
          Density screening/tol_rho:  1.00D-10
          AO Gaussian exp screening on grid/accAOfunc:  14
          CD Gaussian exp screening on grid/accCDfunc:  20
          XC Gaussian exp screening on grid/accXCfunc:  20
          Schwarz screening/accCoul:  1.00D-08

 
 WARNING : Found     7 linear dependencies 
 S eigenvalue threshold:     1.00000E-05
 Smallest S eigenvalue :     1.46788E-06
 Largest  S eigenvalue :     7.79026E-06
 

 !! The overlap matrix has   7 vectors deemed linearly dependent with
    eigenvalues:
 1.47D-06 2.24D-06 2.83D-06 3.59D-06 5.27D-06 5.94D-06 7.79D-06
 
 
      Superposition of Atomic Density Guess
      -------------------------------------
 
 Sum of atomic energies:        -228.52307259
 
      Non-variational initial energy
      ------------------------------

 Total energy =    -232.667108
 1-e energy   =    -691.327504
 2-e energy   =     263.596722
 HOMO         =      -0.182812
 LUMO         =      -0.022837
 
   Time after variat. SCF:      8.9
   Time prior to 1st pass:      8.9

 Grid_pts file          = ./mode1569.96-p.gridpts.00
 Record size in doubles =  12289        No. of grid_pts per rec  =   3070
 Max. records in memory =      6        Max. recs in file   = 220833527

 Grid integrated density:      40.999765798307
 Requested integration accuracy:   0.10E-05

           Memory utilization after 1st SCF pass: 
           Heap Space remaining (MW):       12.96            12961278
          Stack Space remaining (MW):       13.10            13103676

   convergence    iter        energy       DeltaE   RMS-Dens  Diis-err    time
 ---------------- ----- ----------------- --------- --------- ---------  ------
 d= 0,ls=0.0,diis     1   -231.5814247363 -4.27D+02  6.02D-02  2.09D-01    19.7
                                                     6.79D-02  1.96D-01
 d= 0,ls=0.0,diis     2   -231.6398060168 -5.84D-02  5.93D-02  1.22D-02    30.3
                                                     6.68D-02  1.24D-02
 d= 0,ls=0.0,diis     3   -231.6444904221 -4.68D-03  1.25D-03  3.62D-03    41.0
                                                     1.36D-03  3.73D-03
 d= 0,ls=0.0,diis     4   -231.6457461783 -1.26D-03  2.11D-04  1.14D-03    51.6
                                                     2.15D-04  1.05D-03
 d= 0,ls=0.0,diis     5   -231.6462679293 -5.22D-04  3.37D-05  3.77D-05    62.3
                                                     3.15D-05  4.65D-05
  Resetting Diis
 d= 0,ls=0.0,diis     6   -231.6462950629 -2.71D-05  1.17D-05  6.50D-06    73.0
                                                     1.06D-05  4.04D-06
 d= 0,ls=0.0,diis     7   -231.6463009525 -5.89D-06  5.05D-06  1.09D-06    83.7
                                                     5.49D-06  1.98D-06
 d= 0,ls=0.0,diis     8   -231.6463034929 -2.54D-06  2.08D-06  1.93D-06    94.4
                                                     1.52D-06  1.19D-06
 d= 0,ls=0.0,diis     9   -231.6463047207 -1.23D-06  3.61D-06  2.32D-07   105.1
                                                     3.75D-06  3.50D-07
 d= 0,ls=0.0,diis    10   -231.6463058149 -1.09D-06  1.71D-06  3.13D-07   115.7
                                                     1.67D-06  2.94D-07
 d= 0,ls=0.0,diis    11   -231.6463061497 -3.35D-07  4.99D-07  1.52D-08   126.4
                                                     4.61D-07  1.57D-08


         Total DFT energy =     -231.646306149666
      One electron energy =     -696.559917408422
           Coulomb energy =      304.259008796875
    Exchange-Corr. energy =      -34.409071213226
 Nuclear repulsion energy =      195.063673675107

 Numeric. integr. density =       40.999984156926

     Total iterative time =    117.5s


 
                    DFT Final Alpha Molecular Orbital Analysis
                    ------------------------------------------
 
 Vector    1  Occ=1.000000D+00  E=-1.020498D+01
              MO Center= -8.7D-02,  1.4D+00,  4.8D-08, r^2= 3.0D-02
   Bfn.  Coefficient  Atom+Function         Bfn.  Coefficient  Atom+Function  
  ----- ------------  ---------------      ----- ------------  ---------------
     1      0.984140   1 C  s                 3      0.058878   1 C  s         
    50     -0.038731   2 C  s               234     -0.038732   6 C  s         
   143      0.037746   4 C  s               279      0.037926   7 H  s         
   371      0.037924  11 H  s                51     -0.030625   2 C  s         
   235     -0.030624   6 C  s                47      0.026087   2 C  s         
 
 Vector    2  Occ=1.000000D+00  E=-1.019193D+01
              MO Center= -6.9D-01, -6.3D-01, -2.3D-08, r^2= 1.0D+00
   Bfn.  Coefficient  Atom+Function         Bfn.  Coefficient  Atom+Function  
  ----- ------------  ---------------      ----- ------------  ---------------
    93      0.864750   3 C  s               185      0.432053   5 C  s         
    47      0.173760   2 C  s               142     -0.093700   4 C  s         
   231      0.075821   6 C  s               139      0.054550   4 C  s         
    95      0.051718   3 C  s               325      0.048696   9 H  s         
   302      0.048303   8 H  s               234      0.035540   6 C  s         
 
 Vector    3  Occ=1.000000D+00  E=-1.019191D+01
              MO Center=  7.6D-01, -5.2D-01, -1.4D-08, r^2= 1.0D+00
   Bfn.  Coefficient  Atom+Function         Bfn.  Coefficient  Atom+Function  
  ----- ------------  ---------------      ----- ------------  ---------------
   185      0.862572   5 C  s                93     -0.427717   3 C  s         
   231      0.188166   6 C  s                47     -0.104632   2 C  s         
    50      0.062516   2 C  s               348      0.058724  10 H  s         
    51      0.053402   2 C  s               279     -0.052075   7 H  s         
   187      0.051350   5 C  s               234     -0.051505   6 C  s         
 
 Vector    4  Occ=1.000000D+00  E=-1.019047D+01
              MO Center= -1.1D+00,  6.5D-01, -2.0D-08, r^2= 3.9D-01
   Bfn.  Coefficient  Atom+Function         Bfn.  Coefficient  Atom+Function  
  ----- ------------  ---------------      ----- ------------  ---------------
    47      0.941024   2 C  s               231      0.218513   6 C  s         
    93     -0.191515   3 C  s               279      0.058425   7 H  s         
    49      0.054971   2 C  s               143      0.037246   4 C  s         
     4     -0.036054   1 C  s               185     -0.032180   5 C  s         
   142     -0.031782   4 C  s               189      0.031681   5 C  s         
 
 Vector    5  Occ=1.000000D+00  E=-1.019046D+01
              MO Center=  1.1D+00,  7.8D-01,  4.2D-08, r^2= 3.9D-01
   Bfn.  Coefficient  Atom+Function         Bfn.  Coefficient  Atom+Function  
  ----- ------------  ---------------      ----- ------------  ---------------
   231      0.939436   6 C  s                47     -0.211602   2 C  s         
   185     -0.197120   5 C  s                93      0.056432   3 C  s         
   371      0.056197  11 H  s               233      0.054485   6 C  s         
    97      0.045589   3 C  s                96      0.041393   3 C  s         
   189     -0.039223   5 C  s                12     -0.037243   1 C  px        
 
 Vector    6  Occ=1.000000D+00  E=-1.018410D+01
              MO Center=  8.3D-02, -1.3D+00,  3.9D-08, r^2= 3.4D-02
   Bfn.  Coefficient  Atom+Function         Bfn.  Coefficient  Atom+Function  
  ----- ------------  ---------------      ----- ------------  ---------------
   139      0.984422   4 C  s               141      0.057829   4 C  s         
    96     -0.046118   3 C  s               188     -0.046120   5 C  s         
   325      0.045409   9 H  s               143     -0.043802   4 C  s         
     4      0.040473   1 C  s                93     -0.038389   3 C  s         
   185     -0.038460   5 C  s               151      0.036318   4 C  py        
 
 Vector    7  Occ=1.000000D+00  E=-8.724483D-01
              MO Center= -6.1D-03,  9.6D-02,  4.9D-09, r^2= 2.0D+00
   Bfn.  Coefficient  Atom+Function         Bfn.  Coefficient  Atom+Function  
  ----- ------------  ---------------      ----- ------------  ---------------
     2      0.214064   1 C  s                48      0.202175   2 C  s         
   232      0.202160   6 C  s                94      0.195596   3 C  s         
   186      0.195580   5 C  s               140      0.189256   4 C  s         
    50      0.088369   2 C  s                96      0.087937   3 C  s         
   188      0.087932   5 C  s               234      0.088361   6 C  s         
 
 Vector    8  Occ=1.000000D+00  E=-7.623660D-01
              MO Center= -6.2D-03,  9.9D-02,  1.8D-09, r^2= 2.8D+00
   Bfn.  Coefficient  Atom+Function         Bfn.  Coefficient  Atom+Function  
  ----- ------------  ---------------      ----- ------------  ---------------
    48      0.250593   2 C  s               232     -0.250603   6 C  s         
    94      0.243811   3 C  s               186     -0.243817   5 C  s         
    50      0.147170   2 C  s               234     -0.147178   6 C  s         
   279     -0.129774   7 H  s               371      0.129778  11 H  s         
   150     -0.115254   4 C  px               97      0.111500   3 C  s         
 
 Vector    9  Occ=1.000000D+00  E=-7.541274D-01
              MO Center=  9.1D-03, -1.4D-01, -2.7D-08, r^2= 2.6D+00
   Bfn.  Coefficient  Atom+Function         Bfn.  Coefficient  Atom+Function  
  ----- ------------  ---------------      ----- ------------  ---------------
   140     -0.300912   4 C  s                 2      0.278876   1 C  s         
    48      0.148523   2 C  s                94     -0.148605   3 C  s         
   186     -0.148600   5 C  s               232      0.148513   6 C  s         
   142     -0.144637   4 C  s                96     -0.104408   3 C  s         
   188     -0.104407   5 C  s                 4      0.101216   1 C  s         
 
 Vector   10  Occ=1.000000D+00  E=-6.189875D-01
              MO Center= -2.5D-03,  4.0D-02, -1.0D-08, r^2= 3.6D+00
   Bfn.  Coefficient  Atom+Function         Bfn.  Coefficient  Atom+Function  
  ----- ------------  ---------------      ----- ------------  ---------------
    94     -0.208643   3 C  s               186      0.208639   5 C  s         
    48      0.199747   2 C  s               232     -0.199752   6 C  s         
    50      0.184049   2 C  s               234     -0.184055   6 C  s         
    96     -0.147716   3 C  s               188      0.147707   5 C  s         
     6     -0.127446   1 C  px              144      0.117309   4 C  px        
 
 Vector   11  Occ=1.000000D+00  E=-6.033551D-01
              MO Center=  5.5D-03, -8.7D-02, -3.2D-08, r^2= 3.5D+00
   Bfn.  Coefficient  Atom+Function         Bfn.  Coefficient  Atom+Function  
  ----- ------------  ---------------      ----- ------------  ---------------
   142      0.257917   4 C  s                 2      0.238408   1 C  s         
   140      0.218229   4 C  s                 4      0.198294   1 C  s         
    94     -0.138483   3 C  s               186     -0.138500   5 C  s         
    50     -0.123552   2 C  s               234     -0.123544   6 C  s         
    96     -0.119287   3 C  s               188     -0.119297   5 C  s         
 
 Vector   12  Occ=1.000000D+00  E=-5.276645D-01
              MO Center=  9.7D-03, -1.5D-01, -1.1D-08, r^2= 4.1D+00
   Bfn.  Coefficient  Atom+Function         Bfn.  Coefficient  Atom+Function  
  ----- ------------  ---------------      ----- ------------  ---------------
   148      0.159967   4 C  py              145      0.139368   4 C  py        
   324     -0.127540   9 H  s                55      0.104919   2 C  px        
   240     -0.104876   6 C  py              323     -0.100804   9 H  s         
   237     -0.096123   6 C  py              193     -0.094125   5 C  px        
   278     -0.094116   7 H  s               370     -0.094110  11 H  s         
 
 Vector   13  Occ=1.000000D+00  E=-4.647428D-01
              MO Center= -6.6D-03,  1.0D-01, -5.1D-10, r^2= 2.8D+00
   Bfn.  Coefficient  Atom+Function         Bfn.  Coefficient  Atom+Function  
  ----- ------------  ---------------      ----- ------------  ---------------
     9      0.188487   1 C  px                6      0.175328   1 C  px        
   147      0.172399   4 C  px              144      0.159620   4 C  px        
   239     -0.138462   6 C  px              194     -0.132369   5 C  py        
    56     -0.128864   2 C  py               55     -0.123315   2 C  px        
   236     -0.123295   6 C  px              101     -0.121885   3 C  px        
 
 Vector   14  Occ=1.000000D+00  E=-4.634202D-01
              MO Center=  9.7D-03, -1.5D-01, -4.4D-08, r^2= 4.8D+00
   Bfn.  Coefficient  Atom+Function         Bfn.  Coefficient  Atom+Function  
  ----- ------------  ---------------      ----- ------------  ---------------
     2      0.176258   1 C  s               301      0.136238   8 H  s         
   347      0.136215  10 H  s               140     -0.128760   4 C  s         
   193      0.128026   5 C  px              196      0.119904   5 C  px        
   101     -0.119131   3 C  px               96      0.118237   3 C  s         
   188      0.118256   5 C  s               190      0.118764   5 C  px        
 
 Vector   15  Occ=1.000000D+00  E=-4.394811D-01
              MO Center= -1.3D-02,  2.0D-01, -2.5D-08, r^2= 4.0D+00
   Bfn.  Coefficient  Atom+Function         Bfn.  Coefficient  Atom+Function  
  ----- ------------  ---------------      ----- ------------  ---------------
   240      0.146217   6 C  py              102      0.141669   3 C  py        
   237      0.134838   6 C  py               99      0.132286   3 C  py        
    56     -0.131302   2 C  py              278     -0.130652   7 H  s         
   370      0.130650  11 H  s               194     -0.129719   5 C  py        
    55      0.127143   2 C  px               53     -0.121861   2 C  py        
 
 Vector   16  Occ=1.000000D+00  E=-3.986859D-01
              MO Center=  4.9D-02, -7.8D-01, -1.1D-08, r^2= 3.3D+00
   Bfn.  Coefficient  Atom+Function         Bfn.  Coefficient  Atom+Function  
  ----- ------------  ---------------      ----- ------------  ---------------
   148      0.232895   4 C  py              145      0.208719   4 C  py        
   324     -0.198361   9 H  s               151      0.173155   4 C  py        
   323     -0.153922   9 H  s                10      0.139608   1 C  py        
    13      0.121883   1 C  py              240      0.115364   6 C  py        
    56      0.109641   2 C  py                7      0.108616   1 C  py        
 
 Vector   17  Occ=1.000000D+00  E=-3.836939D-01
              MO Center= -7.5D-03,  1.2D-01, -5.7D-08, r^2= 2.7D+00
   Bfn.  Coefficient  Atom+Function         Bfn.  Coefficient  Atom+Function  
  ----- ------------  ---------------      ----- ------------  ---------------
    11      0.173319   1 C  pz               57      0.156122   2 C  pz        
   241      0.156112   6 C  pz              103      0.152286   3 C  pz        
   195      0.152275   5 C  pz              149      0.146532   4 C  pz        
     8      0.136739   1 C  pz               54      0.125545   2 C  pz        
   238      0.125537   6 C  pz              100      0.121764   3 C  pz        
 
 Vector   18  Occ=1.000000D+00  E=-3.668570D-01
              MO Center=  8.8D-03, -1.4D-01, -2.8D-08, r^2= 4.1D+00
   Bfn.  Coefficient  Atom+Function         Bfn.  Coefficient  Atom+Function  
  ----- ------------  ---------------      ----- ------------  ---------------
   147     -0.168215   4 C  px              101      0.164796   3 C  px        
   193      0.164802   5 C  px              144     -0.159126   4 C  px        
     9      0.149675   1 C  px               98      0.149259   3 C  px        
   190      0.149028   5 C  px                6      0.142027   1 C  px        
   196      0.135598   5 C  px              104      0.133488   3 C  px        
 
 Vector   19  Occ=1.000000D+00  E=-2.689277D-01
              MO Center=  7.7D-04, -1.3D-02,  7.5D-08, r^2= 3.0D+00
   Bfn.  Coefficient  Atom+Function         Bfn.  Coefficient  Atom+Function  
  ----- ------------  ---------------      ----- ------------  ---------------
    11      0.245278   1 C  pz              149     -0.238347   4 C  pz        
     8      0.192891   1 C  pz              146     -0.190542   4 C  pz        
    14      0.176243   1 C  pz              152     -0.171366   4 C  pz        
   103     -0.126534   3 C  pz              195     -0.126474   5 C  pz        
    57      0.115288   2 C  pz              241      0.115339   6 C  pz        
 
 Vector   20  Occ=1.000000D+00  E=-2.674650D-01
              MO Center= -3.8D-03,  6.1D-02,  2.8D-07, r^2= 3.1D+00
   Bfn.  Coefficient  Atom+Function         Bfn.  Coefficient  Atom+Function  
  ----- ------------  ---------------      ----- ------------  ---------------
   103      0.207463   3 C  pz              195     -0.207501   5 C  pz        
    57      0.203712   2 C  pz              241     -0.203686   6 C  pz        
   100      0.165282   3 C  pz              192     -0.165313   5 C  pz        
    54      0.163135   2 C  pz              238     -0.163114   6 C  pz        
    60      0.150640   2 C  pz              106      0.150192   3 C  pz        
 
 Vector   21  Occ=1.000000D+00  E=-2.478320D-01
              MO Center= -8.1D-02,  1.3D+00,  8.5D-08, r^2= 2.3D+00
   Bfn.  Coefficient  Atom+Function         Bfn.  Coefficient  Atom+Function  
  ----- ------------  ---------------      ----- ------------  ---------------
    10      0.385800   1 C  py                5      0.336580   1 C  s         
    13      0.337921   1 C  py                7      0.299176   1 C  py        
     4      0.278439   1 C  s                 2      0.137573   1 C  s         
   243     -0.136521   6 C  py               59     -0.134422   2 C  py        
   102      0.113089   3 C  py              194      0.113103   5 C  py        
 
 Vector   22  Occ=0.000000D+00  E=-2.648532D-02
              MO Center= -4.3D-03,  6.8D-02, -9.0D-07, r^2= 4.3D+00
   Bfn.  Coefficient  Atom+Function         Bfn.  Coefficient  Atom+Function  
  ----- ------------  ---------------      ----- ------------  ---------------
   109     -0.317342   3 C  pz              201      0.317328   5 C  pz        
    63      0.312013   2 C  pz              247     -0.311999   6 C  pz        
    60      0.226697   2 C  pz              244     -0.226688   6 C  pz        
   106     -0.223422   3 C  pz              198      0.223412   5 C  pz        
    57      0.218924   2 C  pz              241     -0.218918   6 C  pz        
 
 Vector   23  Occ=0.000000D+00  E=-1.812620D-02
              MO Center=  3.0D-03, -4.8D-02, -4.4D-06, r^2= 4.3D+00
   Bfn.  Coefficient  Atom+Function         Bfn.  Coefficient  Atom+Function  
  ----- ------------  ---------------      ----- ------------  ---------------
   155      0.442906   4 C  pz               17      0.376962   1 C  pz        
   152      0.274705   4 C  pz               11      0.258843   1 C  pz        
   149      0.250499   4 C  pz               14      0.240328   1 C  pz        
   109     -0.228353   3 C  pz              201     -0.228357   5 C  pz        
     8      0.200568   1 C  pz               63     -0.200695   2 C  pz        
 
 Vector   24  Occ=0.000000D+00  E=-1.012195D-02
              MO Center=  6.0D-02, -9.5D-01, -1.4D-06, r^2= 2.0D+01
   Bfn.  Coefficient  Atom+Function         Bfn.  Coefficient  Atom+Function  
  ----- ------------  ---------------      ----- ------------  ---------------
     5      1.451432   1 C  s               279     -0.973277   7 H  s         
   371     -0.973340  11 H  s               326     -0.738545   9 H  s         
   303     -0.731426   8 H  s               349     -0.731235  10 H  s         
   302     -0.651040   8 H  s               348     -0.650916  10 H  s         
   325     -0.587054   9 H  s                51      0.554255   2 C  s         
 
 Vector   25  Occ=0.000000D+00  E= 4.362704D-03
              MO Center=  1.6D-02, -2.6D-01, -6.9D-06, r^2= 2.7D+01
   Bfn.  Coefficient  Atom+Function         Bfn.  Coefficient  Atom+Function  
  ----- ------------  ---------------      ----- ------------  ---------------
    51      2.736841   2 C  s               235     -2.737682   6 C  s         
    97      2.677820   3 C  s               189     -2.677804   5 C  s         
   303      1.997502   8 H  s               349     -1.997323  10 H  s         
    15      1.871366   1 C  px              153      1.804132   4 C  px        
   280      1.538672   7 H  s               372     -1.539184  11 H  s         
 
 Vector   26  Occ=0.000000D+00  E= 8.735798D-03
              MO Center=  4.9D-03, -7.6D-02,  6.2D-05, r^2= 2.7D+01
   Bfn.  Coefficient  Atom+Function         Bfn.  Coefficient  Atom+Function  
  ----- ------------  ---------------      ----- ------------  ---------------
   143      6.245135   4 C  s                51     -4.022988   2 C  s         
   235     -4.024236   6 C  s               326      2.934132   9 H  s         
     5      2.605656   1 C  s               280     -2.388663   7 H  s         
   372     -2.389224  11 H  s               154      1.941089   4 C  py        
   246      1.937810   6 C  py               62      1.833064   2 C  py        
 
 Vector   27  Occ=0.000000D+00  E= 2.670830D-02
              MO Center= -1.5D-02,  2.5D-01, -1.2D-05, r^2= 3.1D+01
   Bfn.  Coefficient  Atom+Function         Bfn.  Coefficient  Atom+Function  
  ----- ------------  ---------------      ----- ------------  ---------------
   280      3.940997   7 H  s               372     -3.941682  11 H  s         
    51      3.684822   2 C  s               235     -3.686013   6 C  s         
   303     -3.611373   8 H  s               349      3.612326  10 H  s         
    61      2.216439   2 C  px               97     -2.223044   3 C  s         
   189      2.222802   5 C  s               199     -2.039619   5 C  px        
 
 Vector   28  Occ=0.000000D+00  E= 3.219900D-02
              MO Center=  3.9D-02, -6.2D-01, -1.1D-04, r^2= 2.9D+01
   Bfn.  Coefficient  Atom+Function         Bfn.  Coefficient  Atom+Function  
  ----- ------------  ---------------      ----- ------------  ---------------
     5      6.381342   1 C  s               326     -4.993263   9 H  s         
   303      3.721446   8 H  s               349      3.721117  10 H  s         
    97     -2.170884   3 C  s               154     -2.178513   4 C  py        
   189     -2.170964   5 C  s               199     -1.642181   5 C  px        
   245      1.627460   6 C  px               61     -1.574828   2 C  px        
 
 Vector   29  Occ=0.000000D+00  E= 4.330430D-02
              MO Center=  1.4D-02, -2.3D-01,  8.1D-06, r^2= 1.3D+01
   Bfn.  Coefficient  Atom+Function         Bfn.  Coefficient  Atom+Function  
  ----- ------------  ---------------      ----- ------------  ---------------
   155      0.599205   4 C  pz               63      0.574847   2 C  pz        
   247      0.574813   6 C  pz               17     -0.260179   1 C  pz        
    60     -0.153675   2 C  pz              244     -0.153693   6 C  pz        
   289     -0.123237   7 H  pz              381     -0.123235  11 H  pz        
   259      0.119494   6 C  d -1             77      0.108853   2 C  d  1      
 
 Vector   30  Occ=0.000000D+00  E= 5.494404D-02
              MO Center=  9.6D-03, -1.5D-01, -4.1D-05, r^2= 1.5D+01
   Bfn.  Coefficient  Atom+Function         Bfn.  Coefficient  Atom+Function  
  ----- ------------  ---------------      ----- ------------  ---------------
     5     10.706563   1 C  s               143      5.307606   4 C  s         
    51     -4.506989   2 C  s               235     -4.506936   6 C  s         
   303     -2.816288   8 H  s               349     -2.816232  10 H  s         
   326      2.085237   9 H  s               199      2.019529   5 C  px        
    97     -1.940354   3 C  s               189     -1.940246   5 C  s         
 
 Vector   31  Occ=0.000000D+00  E= 6.336845D-02
              MO Center= -4.1D-02,  6.5D-01, -1.1D-04, r^2= 2.8D+01
   Bfn.  Coefficient  Atom+Function         Bfn.  Coefficient  Atom+Function  
  ----- ------------  ---------------      ----- ------------  ---------------
     5     24.447896   1 C  s                51     -9.907880   2 C  s         
   235     -9.906851   6 C  s               143      7.673010   4 C  s         
    97     -6.503540   3 C  s               189     -6.503279   5 C  s         
   326      5.847790   9 H  s               154      4.764219   4 C  py        
   303     -4.672781   8 H  s               349     -4.672906  10 H  s         
 
 Vector   32  Occ=0.000000D+00  E= 6.573714D-02
              MO Center=  1.7D-03, -2.6D-02,  5.3D-04, r^2= 1.8D+01
   Bfn.  Coefficient  Atom+Function         Bfn.  Coefficient  Atom+Function  
  ----- ------------  ---------------      ----- ------------  ---------------
   109      0.977739   3 C  pz              201     -0.977711   5 C  pz        
    63      0.770338   2 C  pz              247     -0.770322   6 C  pz        
   169     -0.684119   4 C  d  1             31     -0.579959   1 C  d  1      
   106      0.495351   3 C  pz              198     -0.495357   5 C  pz        
    60      0.488302   2 C  pz              244     -0.488282   6 C  pz        
 
 Vector   33  Occ=0.000000D+00  E= 6.826919D-02
              MO Center= -1.2D-02,  1.9D-01, -2.8D-04, r^2= 1.8D+01
   Bfn.  Coefficient  Atom+Function         Bfn.  Coefficient  Atom+Function  
  ----- ------------  ---------------      ----- ------------  ---------------
    63      1.028650   2 C  pz              247      1.028627   6 C  pz        
   109     -0.816638   3 C  pz              201     -0.816567   5 C  pz        
   155     -0.743261   4 C  pz               14      0.635578   1 C  pz        
   152     -0.625563   4 C  pz               17      0.453248   1 C  pz        
   213     -0.445963   5 C  d -1            261     -0.410343   6 C  d  1      
 
 Vector   34  Occ=0.000000D+00  E= 7.641739D-02
              MO Center=  9.6D-03, -1.5D-01, -1.2D-04, r^2= 3.4D+01
   Bfn.  Coefficient  Atom+Function         Bfn.  Coefficient  Atom+Function  
  ----- ------------  ---------------      ----- ------------  ---------------
    51     13.883146   2 C  s               235    -13.899499   6 C  s         
    97     12.391162   3 C  s               189    -12.389633   5 C  s         
    15      7.678344   1 C  px              153      7.680084   4 C  px        
   107      4.759371   3 C  px              303      4.681892   8 H  s         
   349     -4.680289  10 H  s               199      4.460529   5 C  px        
 
 Vector   35  Occ=0.000000D+00  E= 7.793812D-02
              MO Center=  2.1D-01, -3.3D+00,  1.3D-04, r^2= 2.1D+01
   Bfn.  Coefficient  Atom+Function         Bfn.  Coefficient  Atom+Function  
  ----- ------------  ---------------      ----- ------------  ---------------
   143     18.115304   4 C  s                51    -13.417685   2 C  s         
   235    -13.405868   6 C  s               326      7.003403   9 H  s         
    62      5.635012   2 C  py              246      5.661596   6 C  py        
   200      5.370864   5 C  py              154      5.231155   4 C  py        
   108      5.018410   3 C  py              279      4.191045   7 H  s         
 
 Vector   36  Occ=0.000000D+00  E= 8.151686D-02
              MO Center= -8.9D-02,  1.4D+00,  8.4D-05, r^2= 2.8D+01
   Bfn.  Coefficient  Atom+Function         Bfn.  Coefficient  Atom+Function  
  ----- ------------  ---------------      ----- ------------  ---------------
   143     20.814638   4 C  s                51     -9.067484   2 C  s         
   235     -9.069583   6 C  s               246      5.291195   6 C  py        
    62      5.193223   2 C  py              325     -4.946158   9 H  s         
   280     -4.579131   7 H  s               372     -4.580640  11 H  s         
   200      4.531401   5 C  py              326      4.534091   9 H  s         
 
 Vector   37  Occ=0.000000D+00  E= 8.317302D-02
              MO Center=  4.7D-02, -7.4D-01, -1.1D-05, r^2= 2.2D+01
   Bfn.  Coefficient  Atom+Function         Bfn.  Coefficient  Atom+Function  
  ----- ------------  ---------------      ----- ------------  ---------------
    97      5.098008   3 C  s               189     -5.094707   5 C  s         
    51     -3.109398   2 C  s               235      3.103400   6 C  s         
   349     -2.846668  10 H  s               108      2.832079   3 C  py        
   303      2.846034   8 H  s               200     -2.711588   5 C  py        
   153      2.613524   4 C  px               96      2.095885   3 C  s         
 
 Vector   38  Occ=0.000000D+00  E= 9.535870D-02
              MO Center= -5.6D-02,  8.8D-01,  9.0D-06, r^2= 3.1D+01
   Bfn.  Coefficient  Atom+Function         Bfn.  Coefficient  Atom+Function  
  ----- ------------  ---------------      ----- ------------  ---------------
    51     17.815109   2 C  s               235    -17.812853   6 C  s         
   280      7.239810   7 H  s               372     -7.239213  11 H  s         
    97     -7.018741   3 C  s               189      7.016918   5 C  s         
   108     -6.586081   3 C  py              303     -6.218451   8 H  s         
   349      6.219452  10 H  s               200      6.046048   5 C  py        
 
 Vector   39  Occ=0.000000D+00  E= 1.017972D-01
              MO Center= -7.2D-03,  1.1D-01, -3.3D-04, r^2= 1.9D+01
   Bfn.  Coefficient  Atom+Function         Bfn.  Coefficient  Atom+Function  
  ----- ------------  ---------------      ----- ------------  ---------------
    51     13.712878   2 C  s               235    -13.713197   6 C  s         
    97     10.836613   3 C  s               189    -10.836294   5 C  s         
    15      9.979990   1 C  px              153      9.689222   4 C  px        
   246     -6.073843   6 C  py              108     -6.003818   3 C  py        
   200      5.970371   5 C  py               62      5.888449   2 C  py        
 
 Vector   40  Occ=0.000000D+00  E= 1.064865D-01
              MO Center= -8.1D-03,  1.3D-01, -5.7D-04, r^2= 2.1D+01
   Bfn.  Coefficient  Atom+Function         Bfn.  Coefficient  Atom+Function  
  ----- ------------  ---------------      ----- ------------  ---------------
   143     18.181985   4 C  s                51     -9.946536   2 C  s         
   235     -9.948520   6 C  s                 5     -9.364950   1 C  s         
   107     -8.761856   3 C  px              199      7.984214   5 C  px        
   245     -7.019718   6 C  px              200      6.698008   5 C  py        
    61      6.470288   2 C  px              108      5.642223   3 C  py        
 
 Vector   41  Occ=0.000000D+00  E= 1.081674D-01
              MO Center= -1.0D-02,  1.6D-01, -9.4D-05, r^2= 2.2D+01
   Bfn.  Coefficient  Atom+Function         Bfn.  Coefficient  Atom+Function  
  ----- ------------  ---------------      ----- ------------  ---------------
    63      3.385655   2 C  pz              247     -3.385653   6 C  pz        
   109     -3.357824   3 C  pz              201      3.358790   5 C  pz        
    60      0.694664   2 C  pz              244     -0.694661   6 C  pz        
   106     -0.635466   3 C  pz              198      0.635649   5 C  pz        
    77     -0.386179   2 C  d  1            215      0.366624   5 C  d  1      
 
 Vector   42  Occ=0.000000D+00  E= 1.089977D-01
              MO Center=  3.0D-02, -4.7D-01,  2.3D-03, r^2= 2.1D+01
   Bfn.  Coefficient  Atom+Function         Bfn.  Coefficient  Atom+Function  
  ----- ------------  ---------------      ----- ------------  ---------------
   155      5.336307   4 C  pz              109     -3.449455   3 C  pz        
   201     -3.448675   5 C  pz               17      2.509486   1 C  pz        
   152      0.992385   4 C  pz              106     -0.607462   3 C  pz        
   198     -0.607323   5 C  pz              167      0.574328   4 C  d -1      
    14      0.503263   1 C  pz               63     -0.475931   2 C  pz        
 
 Vector   43  Occ=0.000000D+00  E= 1.094941D-01
              MO Center=  2.8D-02, -4.5D-01, -1.2D-03, r^2= 2.7D+01
   Bfn.  Coefficient  Atom+Function         Bfn.  Coefficient  Atom+Function  
  ----- ------------  ---------------      ----- ------------  ---------------
   326      7.626936   9 H  s               154      7.104055   4 C  py        
   303     -6.436001   8 H  s               349     -6.435592  10 H  s         
   143     -5.841190   4 C  s               108     -4.501493   3 C  py        
   200     -4.268820   5 C  py               62     -4.230282   2 C  py        
   246     -4.199606   6 C  py                4      3.907005   1 C  s         
 
 Vector   44  Occ=0.000000D+00  E= 1.178230D-01
              MO Center= -4.1D-02,  6.6D-01, -4.1D-04, r^2= 1.4D+01
   Bfn.  Coefficient  Atom+Function         Bfn.  Coefficient  Atom+Function  
  ----- ------------  ---------------      ----- ------------  ---------------
    17      6.887929   1 C  pz               63     -6.018433   2 C  pz        
   247     -6.018290   6 C  pz              109      5.048730   3 C  pz        
   201      5.048575   5 C  pz              155     -4.832275   4 C  pz        
    14      1.238586   1 C  pz               60     -1.019520   2 C  pz        
   244     -1.019490   6 C  pz              106      0.891391   3 C  pz        
 
 Vector   45  Occ=0.000000D+00  E= 1.263683D-01
              MO Center= -1.9D-02,  2.9D-01, -2.5D-05, r^2= 2.5D+01
   Bfn.  Coefficient  Atom+Function         Bfn.  Coefficient  Atom+Function  
  ----- ------------  ---------------      ----- ------------  ---------------
    51      7.656887   2 C  s               235     -7.655455   6 C  s         
   107      7.234037   3 C  px              199      7.146722   5 C  px        
   245     -7.058043   6 C  px               61     -6.936999   2 C  px        
    15      6.361966   1 C  px               97     -6.244117   3 C  s         
   189      6.245082   5 C  s               153     -5.741933   4 C  px        
 
 Vector   46  Occ=0.000000D+00  E= 1.274645D-01
              MO Center= -1.2D-02,  1.8D-01,  1.3D-04, r^2= 2.6D+01
   Bfn.  Coefficient  Atom+Function         Bfn.  Coefficient  Atom+Function  
  ----- ------------  ---------------      ----- ------------  ---------------
   154     -8.053748   4 C  py               16      7.434105   1 C  py        
   108      6.893686   3 C  py               62     -6.566450   2 C  py        
   200      6.575959   5 C  py              246     -6.374627   6 C  py        
   326     -4.043430   9 H  s                 5      3.516655   1 C  s         
   303      3.166139   8 H  s               349      3.165475  10 H  s         
 
 Vector   47  Occ=0.000000D+00  E= 1.609586D-01
              MO Center= -8.5D-03,  1.4D-01,  8.9D-05, r^2= 1.7D+01
   Bfn.  Coefficient  Atom+Function         Bfn.  Coefficient  Atom+Function  
  ----- ------------  ---------------      ----- ------------  ---------------
    17      8.197710   1 C  pz               63     -7.994507   2 C  pz        
   247     -7.994606   6 C  pz              155     -7.876339   4 C  pz        
   109      7.768720   3 C  pz              201      7.768816   5 C  pz        
    60     -1.188949   2 C  pz              106      1.191655   3 C  pz        
   198      1.191684   5 C  pz              244     -1.188977   6 C  pz        
 
 Vector   48  Occ=0.000000D+00  E= 1.660238D-01
              MO Center= -8.8D-02,  1.4D+00,  3.3D-04, r^2= 2.2D+01
   Bfn.  Coefficient  Atom+Function         Bfn.  Coefficient  Atom+Function  
  ----- ------------  ---------------      ----- ------------  ---------------
     5     59.195902   1 C  s                51    -26.045280   2 C  s         
   143     26.054076   4 C  s               235    -26.046855   6 C  s         
    97    -14.330791   3 C  s               189    -14.330109   5 C  s         
   154      7.398196   4 C  py              245      6.814697   6 C  px        
    61     -6.404382   2 C  px              326      6.141339   9 H  s         
 
 Vector   49  Occ=0.000000D+00  E= 1.754342D-01
              MO Center=  2.5D-02, -3.9D-01, -1.8D-04, r^2= 1.1D+01
   Bfn.  Coefficient  Atom+Function         Bfn.  Coefficient  Atom+Function  
  ----- ------------  ---------------      ----- ------------  ---------------
   335      1.106439   9 H  pz              312      1.078807   8 H  pz        
   358      1.078760  10 H  pz              289      0.972956   7 H  pz        
   381      0.972916  11 H  pz               17      0.960319   1 C  pz        
    63     -0.883562   2 C  pz              247     -0.883534   6 C  pz        
   106     -0.840678   3 C  pz              198     -0.840626   5 C  pz        
 
 Vector   50  Occ=0.000000D+00  E= 1.863443D-01
              MO Center=  3.4D-02, -5.4D-01,  1.0D-04, r^2= 1.5D+01
   Bfn.  Coefficient  Atom+Function         Bfn.  Coefficient  Atom+Function  
  ----- ------------  ---------------      ----- ------------  ---------------
     5     16.055399   1 C  s                97     -7.429151   3 C  s         
   189     -7.428551   5 C  s                51     -4.582745   2 C  s         
   235     -4.582023   6 C  s               325      4.460116   9 H  s         
    62     -4.082719   2 C  py              154      4.021858   4 C  py        
   246     -3.851824   6 C  py               50     -3.284633   2 C  s         
 
 Vector   51  Occ=0.000000D+00  E= 1.981692D-01
              MO Center= -2.8D-02,  4.8D-01,  3.5D-04, r^2= 2.3D+01
   Bfn.  Coefficient  Atom+Function         Bfn.  Coefficient  Atom+Function  
  ----- ------------  ---------------      ----- ------------  ---------------
    51     44.769432   2 C  s               235    -44.865180   6 C  s         
    97     24.966554   3 C  s               189    -24.939665   5 C  s         
    15     18.434111   1 C  px              153     17.110741   4 C  px        
   302    -14.026738   8 H  s               348     14.018495  10 H  s         
   200      9.315957   5 C  py              108     -8.563793   3 C  py        
 
 Vector   52  Occ=0.000000D+00  E= 1.983592D-01
              MO Center=  4.4D-02, -7.3D-01, -5.1D-04, r^2= 2.3D+01
   Bfn.  Coefficient  Atom+Function         Bfn.  Coefficient  Atom+Function  
  ----- ------------  ---------------      ----- ------------  ---------------
   143     61.157386   4 C  s                51    -34.652582   2 C  s         
   235    -34.527559   6 C  s               325    -16.763442   9 H  s         
    62     14.718288   2 C  py              246     14.461704   6 C  py        
   200     13.768024   5 C  py              108     12.590217   3 C  py        
     5    -11.428026   1 C  s               279     11.188157   7 H  s         
 
 Vector   53  Occ=0.000000D+00  E= 2.153983D-01
              MO Center=  8.7D-02, -1.4D+00, -3.7D-05, r^2= 1.5D+01
   Bfn.  Coefficient  Atom+Function         Bfn.  Coefficient  Atom+Function  
  ----- ------------  ---------------      ----- ------------  ---------------
    97     14.082431   3 C  s               189    -14.081679   5 C  s         
    96      6.618456   3 C  s               188     -6.618799   5 C  s         
   153      6.340285   4 C  px              279     -5.164494   7 H  s         
   371      5.165068  11 H  s               303      4.715908   8 H  s         
   349     -4.715832  10 H  s               246     -4.660008   6 C  py        
 
 Vector   54  Occ=0.000000D+00  E= 2.183042D-01
              MO Center=  1.8D-02, -2.9D-01, -1.8D-04, r^2= 1.5D+01
   Bfn.  Coefficient  Atom+Function         Bfn.  Coefficient  Atom+Function  
  ----- ------------  ---------------      ----- ------------  ---------------
   143     25.788724   4 C  s                51    -17.813958   2 C  s         
   235    -17.822349   6 C  s                 5     15.921610   1 C  s         
    16     -6.463900   1 C  py              325     -6.023362   9 H  s         
    62      4.880899   2 C  py              246      4.764323   6 C  py        
   279      3.768905   7 H  s               371      3.769338  11 H  s         
 
 Vector   55  Occ=0.000000D+00  E= 2.194206D-01
              MO Center=  7.2D-03, -1.1D-01,  1.1D-03, r^2= 1.5D+01
   Bfn.  Coefficient  Atom+Function         Bfn.  Coefficient  Atom+Function  
  ----- ------------  ---------------      ----- ------------  ---------------
    51     20.227696   2 C  s               235    -20.221628   6 C  s         
   108     -8.664660   3 C  py              200      8.298369   5 C  py        
    15      7.346469   1 C  px              302     -7.045936   8 H  s         
   348      7.045977  10 H  s               153      6.245849   4 C  px        
   246     -3.736534   6 C  py               62      3.599706   2 C  py        
 
 Vector   56  Occ=0.000000D+00  E= 2.299120D-01
              MO Center= -1.8D-02,  2.8D-01,  1.6D-03, r^2= 1.8D+01
   Bfn.  Coefficient  Atom+Function         Bfn.  Coefficient  Atom+Function  
  ----- ------------  ---------------      ----- ------------  ---------------
   199      4.932422   5 C  px              107      4.674534   3 C  px        
   153     -3.532554   4 C  px               50     -3.298818   2 C  s         
   234      3.298412   6 C  s               303      3.162477   8 H  s         
   349     -3.161674  10 H  s                15     -2.549469   1 C  px        
   108      2.362433   3 C  py               59      1.917678   2 C  py        
 
 Vector   57  Occ=0.000000D+00  E= 2.311769D-01
              MO Center= -4.0D-05,  8.7D-04, -3.6D-03, r^2= 1.6D+01
   Bfn.  Coefficient  Atom+Function         Bfn.  Coefficient  Atom+Function  
  ----- ------------  ---------------      ----- ------------  ---------------
   106      2.147082   3 C  pz              198     -2.147094   5 C  pz        
    60      2.044618   2 C  pz              244     -2.044584   6 C  pz        
   312     -1.818883   8 H  pz              358      1.818915  10 H  pz        
   289     -1.719084   7 H  pz              381      1.719068  11 H  pz        
   169     -1.381514   4 C  d  1             31     -1.247234   1 C  d  1      
 
 Vector   58  Occ=0.000000D+00  E= 2.352286D-01
              MO Center= -1.3D-02,  2.1D-01,  4.6D-04, r^2= 1.6D+01
   Bfn.  Coefficient  Atom+Function         Bfn.  Coefficient  Atom+Function  
  ----- ------------  ---------------      ----- ------------  ---------------
   143     15.262969   4 C  s                51    -10.768496   2 C  s         
   235    -10.754923   6 C  s               107     -8.217655   3 C  px        
   199      7.784314   5 C  px               61      5.382538   2 C  px        
   245     -5.269684   6 C  px              303     -4.425127   8 H  s         
   349     -4.427314  10 H  s                 5      4.297765   1 C  s         
 
 Vector   59  Occ=0.000000D+00  E= 2.360072D-01
              MO Center= -5.9D-03,  9.5D-02,  1.1D-03, r^2= 1.7D+01
   Bfn.  Coefficient  Atom+Function         Bfn.  Coefficient  Atom+Function  
  ----- ------------  ---------------      ----- ------------  ---------------
    97    -33.493122   3 C  s               189     33.493707   5 C  s         
    51     31.470433   2 C  s               235    -31.475931   6 C  s         
    96    -14.259030   3 C  s               188     14.258104   5 C  s         
   279     10.695704   7 H  s               371    -10.694445  11 H  s         
   302    -10.548125   8 H  s               348     10.547978  10 H  s         
 
 Vector   60  Occ=0.000000D+00  E= 2.434611D-01
              MO Center=  2.5D-03, -4.1D-02, -4.3D-04, r^2= 1.5D+01
   Bfn.  Coefficient  Atom+Function         Bfn.  Coefficient  Atom+Function  
  ----- ------------  ---------------      ----- ------------  ---------------
   152      3.424215   4 C  pz               14     -3.034706   1 C  pz        
   289      2.173052   7 H  pz              381      2.173062  11 H  pz        
   335     -2.121684   9 H  pz              261      2.004192   6 C  d  1      
    77     -1.989442   2 C  d  1             63     -1.599706   2 C  pz        
   247     -1.599641   6 C  pz              155      1.366028   4 C  pz        
 
 Vector   61  Occ=0.000000D+00  E= 2.595632D-01
              MO Center=  3.4D-02, -5.3D-01,  5.8D-05, r^2= 1.7D+01
   Bfn.  Coefficient  Atom+Function         Bfn.  Coefficient  Atom+Function  
  ----- ------------  ---------------      ----- ------------  ---------------
     5      7.860731   1 C  s               108     -6.420669   3 C  py        
   200     -5.854842   5 C  py              143     -5.608555   4 C  s         
   303     -5.007329   8 H  s               349     -5.008281  10 H  s         
   199      4.886544   5 C  px              197     -4.830959   5 C  py        
   105     -4.718324   3 C  py              279      4.192232   7 H  s         
 
 Vector   62  Occ=0.000000D+00  E= 2.620045D-01
              MO Center=  7.2D-02, -1.1D+00, -4.8D-05, r^2= 1.7D+01
   Bfn.  Coefficient  Atom+Function         Bfn.  Coefficient  Atom+Function  
  ----- ------------  ---------------      ----- ------------  ---------------
     5     19.210226   1 C  s               154     15.528603   4 C  py        
   143     14.797038   4 C  s                51    -14.511067   2 C  s         
   235    -14.512332   6 C  s               326      9.251903   9 H  s         
     4      6.128033   1 C  s               108     -5.036699   3 C  py        
    97     -4.744866   3 C  s               189     -4.743500   5 C  s         
 
 Vector   63  Occ=0.000000D+00  E= 2.676236D-01
              MO Center= -2.7D-02,  4.2D-01,  6.4D-05, r^2= 2.0D+01
   Bfn.  Coefficient  Atom+Function         Bfn.  Coefficient  Atom+Function  
  ----- ------------  ---------------      ----- ------------  ---------------
    51     20.190283   2 C  s               235    -20.190175   6 C  s         
    97    -12.072249   3 C  s               189     12.071917   5 C  s         
    61     11.034411   2 C  px              245     10.266194   6 C  px        
    96     -8.634295   3 C  s               188      8.634934   5 C  s         
   279      8.632045   7 H  s               371     -8.632249  11 H  s         
 
 Vector   64  Occ=0.000000D+00  E= 2.748691D-01
              MO Center= -7.9D-04,  1.2D-02,  6.7D-05, r^2= 1.4D+01
   Bfn.  Coefficient  Atom+Function         Bfn.  Coefficient  Atom+Function  
  ----- ------------  ---------------      ----- ------------  ---------------
   143      9.159804   4 C  s                 5      9.063771   1 C  s         
   154      5.895702   4 C  py              279     -5.592959   7 H  s         
   371     -5.591385  11 H  s               302     -4.636835   8 H  s         
   348     -4.637064  10 H  s               325     -4.405261   9 H  s         
    16     -4.135593   1 C  py              246      3.297654   6 C  py        
 
 Vector   65  Occ=0.000000D+00  E= 2.828523D-01
              MO Center= -1.2D-02,  1.9D-01, -2.6D-05, r^2= 1.6D+01
   Bfn.  Coefficient  Atom+Function         Bfn.  Coefficient  Atom+Function  
  ----- ------------  ---------------      ----- ------------  ---------------
    12      9.619438   1 C  px               97      8.797157   3 C  s         
   189     -8.797060   5 C  s               302      8.008082   8 H  s         
   348     -8.007769  10 H  s                51     -7.803970   2 C  s         
   235      7.803433   6 C  s               199      7.466775   5 C  px        
   107      6.996972   3 C  px              150      6.219363   4 C  px        
 
 Vector   66  Occ=0.000000D+00  E= 2.953695D-01
              MO Center= -3.8D-03,  6.0D-02, -2.1D-05, r^2= 1.6D+01
   Bfn.  Coefficient  Atom+Function         Bfn.  Coefficient  Atom+Function  
  ----- ------------  ---------------      ----- ------------  ---------------
    63      3.197164   2 C  pz              109     -3.185333   3 C  pz        
   201      3.185018   5 C  pz              247     -3.196957   6 C  pz        
   289     -2.284395   7 H  pz              381      2.284420  11 H  pz        
    60      2.258876   2 C  pz              244     -2.258853   6 C  pz        
   312      2.264225   8 H  pz              358     -2.264155  10 H  pz        
 
 Vector   67  Occ=0.000000D+00  E= 2.962120D-01
              MO Center= -6.0D-02,  9.6D-01,  4.1D-04, r^2= 1.4D+01
   Bfn.  Coefficient  Atom+Function         Bfn.  Coefficient  Atom+Function  
  ----- ------------  ---------------      ----- ------------  ---------------
     4     10.450941   1 C  s                59     -5.708180   2 C  py        
   243     -5.595770   6 C  py                5      5.530471   1 C  s         
   105     -5.498859   3 C  py              197     -5.105104   5 C  py        
    16      4.290237   1 C  py              279     -4.230586   7 H  s         
   371     -4.230324  11 H  s                62     -3.927078   2 C  py        
 
 Vector   68  Occ=0.000000D+00  E= 3.080681D-01
              MO Center=  1.7D-02, -2.7D-01, -4.6D-04, r^2= 1.5D+01
   Bfn.  Coefficient  Atom+Function         Bfn.  Coefficient  Atom+Function  
  ----- ------------  ---------------      ----- ------------  ---------------
   155      5.189101   4 C  pz               14      4.369039   1 C  pz        
   109     -3.741156   3 C  pz              201     -3.741243   5 C  pz        
   335     -2.712174   9 H  pz               60     -2.052468   2 C  pz        
   244     -2.052395   6 C  pz               17      1.845247   1 C  pz        
   152      1.846301   4 C  pz               29     -1.717793   1 C  d -1      
 
 Vector   69  Occ=0.000000D+00  E= 3.150199D-01
              MO Center=  5.7D-03, -9.0D-02,  1.8D-05, r^2= 9.1D+00
   Bfn.  Coefficient  Atom+Function         Bfn.  Coefficient  Atom+Function  
  ----- ------------  ---------------      ----- ------------  ---------------
   261      1.258242   6 C  d  1             77      1.140738   2 C  d  1      
   169     -1.095256   4 C  d  1             75     -1.006685   2 C  d -1      
   259      0.855586   6 C  d -1            289     -0.718565   7 H  pz        
   381      0.718571  11 H  pz               31      0.631926   1 C  d  1      
    60     -0.366054   2 C  pz              244      0.366248   6 C  pz        
 
 Vector   70  Occ=0.000000D+00  E= 3.286139D-01
              MO Center=  4.0D-02, -6.3D-01,  9.4D-05, r^2= 1.5D+01
   Bfn.  Coefficient  Atom+Function         Bfn.  Coefficient  Atom+Function  
  ----- ------------  ---------------      ----- ------------  ---------------
   142     12.740173   4 C  s                96      8.614476   3 C  s         
   188      8.614567   5 C  s               151     -6.609398   4 C  py        
   325     -5.945069   9 H  s                 4     -5.011973   1 C  s         
   334     -5.027379   9 H  py              302     -4.538537   8 H  s         
   348     -4.538037  10 H  s               243      4.190456   6 C  py        
 
 Vector   71  Occ=0.000000D+00  E= 3.347499D-01
              MO Center= -1.6D-03,  2.6D-02,  1.8D-04, r^2= 7.7D+00
   Bfn.  Coefficient  Atom+Function         Bfn.  Coefficient  Atom+Function  
  ----- ------------  ---------------      ----- ------------  ---------------
   289      2.030192   7 H  pz              381      2.030318  11 H  pz        
   335      1.829748   9 H  pz               14     -1.776881   1 C  pz        
   155     -1.705629   4 C  pz               63     -1.542133   2 C  pz        
   247     -1.542143   6 C  pz               77     -1.512546   2 C  d  1      
   261      1.412454   6 C  d  1            106     -1.275809   3 C  pz        
 
 Vector   72  Occ=0.000000D+00  E= 3.430410D-01
              MO Center=  2.5D-02, -3.9D-01, -3.8D-03, r^2= 1.2D+01
   Bfn.  Coefficient  Atom+Function         Bfn.  Coefficient  Atom+Function  
  ----- ------------  ---------------      ----- ------------  ---------------
   169      3.327622   4 C  d  1             31      2.674671   1 C  d  1      
   312     -2.486543   8 H  pz              358      2.486215  10 H  pz        
   123      2.215547   3 C  d  1            215      2.171762   5 C  d  1      
   106     -1.810606   3 C  pz              198      1.810620   5 C  pz        
   289     -1.421801   7 H  pz              381      1.421725  11 H  pz        
 
 Vector   73  Occ=0.000000D+00  E= 3.444801D-01
              MO Center= -3.6D-02,  5.7D-01, -1.8D-03, r^2= 1.2D+01
   Bfn.  Coefficient  Atom+Function         Bfn.  Coefficient  Atom+Function  
  ----- ------------  ---------------      ----- ------------  ---------------
   143     23.506976   4 C  s               325    -12.902977   9 H  s         
   279     12.070817   7 H  s               371     12.071715  11 H  s         
    51    -11.603774   2 C  s               235    -11.607246   6 C  s         
     5     -8.030515   1 C  s               197     -7.047511   5 C  py        
   105     -6.934314   3 C  py              243     -6.110130   6 C  py        
 
 Vector   74  Occ=0.000000D+00  E= 3.483560D-01
              MO Center=  9.1D-03, -1.4D-01,  3.4D-03, r^2= 1.2D+01
   Bfn.  Coefficient  Atom+Function         Bfn.  Coefficient  Atom+Function  
  ----- ------------  ---------------      ----- ------------  ---------------
    51     21.104898   2 C  s               235    -21.087477   6 C  s         
   302    -11.807294   8 H  s               348     11.808513  10 H  s         
    97     10.746470   3 C  s               189    -10.749210   5 C  s         
   279     -9.618347   7 H  s               371      9.611117  11 H  s         
    12     -7.962860   1 C  px              150     -6.907853   4 C  px        
 
 Vector   75  Occ=0.000000D+00  E= 3.483898D-01
              MO Center=  3.3D-02, -5.3D-01,  2.9D-03, r^2= 1.3D+01
   Bfn.  Coefficient  Atom+Function         Bfn.  Coefficient  Atom+Function  
  ----- ------------  ---------------      ----- ------------  ---------------
   155     -3.919292   4 C  pz               17      3.718568   1 C  pz        
   109      3.503350   3 C  pz              201      3.503812   5 C  pz        
    63     -3.387606   2 C  pz              247     -3.387641   6 C  pz        
   152     -3.061431   4 C  pz              235      2.485152   6 C  s         
    51     -2.337627   2 C  s               213     -2.265044   5 C  d -1      
 
 Vector   76  Occ=0.000000D+00  E= 3.527950D-01
              MO Center=  3.2D-02, -5.1D-01, -2.4D-04, r^2= 1.4D+01
   Bfn.  Coefficient  Atom+Function         Bfn.  Coefficient  Atom+Function  
  ----- ------------  ---------------      ----- ------------  ---------------
    17      6.439015   1 C  pz               63     -5.894367   2 C  pz        
   247     -5.894423   6 C  pz              109      5.167415   3 C  pz        
   201      5.167440   5 C  pz              155     -4.913451   4 C  pz        
   335      3.944622   9 H  pz               14      3.826921   1 C  pz        
   167      3.056996   4 C  d -1             60     -2.697784   2 C  pz        
 
 Vector   77  Occ=0.000000D+00  E= 3.543693D-01
              MO Center= -2.1D-02,  3.3D-01, -7.0D-04, r^2= 1.5D+01
   Bfn.  Coefficient  Atom+Function         Bfn.  Coefficient  Atom+Function  
  ----- ------------  ---------------      ----- ------------  ---------------
     5     31.479850   1 C  s               143     16.669300   4 C  s         
    51    -16.208565   2 C  s               235    -16.205271   6 C  s         
   151    -11.304378   4 C  py               50      7.564467   2 C  s         
   196     -7.577844   5 C  px              234      7.564490   6 C  s         
    13      7.374774   1 C  py              104      7.151466   3 C  px        
 
 Vector   78  Occ=0.000000D+00  E= 3.598848D-01
              MO Center= -4.8D-02,  7.6D-01,  2.2D-04, r^2= 1.3D+01
   Bfn.  Coefficient  Atom+Function         Bfn.  Coefficient  Atom+Function  
  ----- ------------  ---------------      ----- ------------  ---------------
   289      3.400283   7 H  pz              381     -3.400370  11 H  pz        
    60      3.137096   2 C  pz              244     -3.137104   6 C  pz        
    77     -3.084506   2 C  d  1            121     -3.058401   3 C  d -1      
   259      3.003324   6 C  d -1            213      2.756679   5 C  d -1      
   312     -2.752898   8 H  pz              358      2.752809  10 H  pz        
 
 Vector   79  Occ=0.000000D+00  E= 3.685425D-01
              MO Center=  3.5D-02, -5.7D-01, -1.9D-04, r^2= 1.3D+01
   Bfn.  Coefficient  Atom+Function         Bfn.  Coefficient  Atom+Function  
  ----- ------------  ---------------      ----- ------------  ---------------
    96     10.853599   3 C  s               188     10.852518   5 C  s         
   104     -8.505985   3 C  px              196      8.503684   5 C  px        
   142     -7.345257   4 C  s                 5      6.870787   1 C  s         
   212      5.382314   5 C  d -2            258      5.284657   6 C  d -2      
   120     -5.217439   3 C  d -2            242     -5.069836   6 C  px        
 
 Vector   80  Occ=0.000000D+00  E= 3.719880D-01
              MO Center=  2.0D-02, -3.2D-01, -2.0D-04, r^2= 1.3D+01
   Bfn.  Coefficient  Atom+Function         Bfn.  Coefficient  Atom+Function  
  ----- ------------  ---------------      ----- ------------  ---------------
    97     10.069422   3 C  s               189    -10.068273   5 C  s         
    50      8.775770   2 C  s               234     -8.775184   6 C  s         
   279     -5.575343   7 H  s               371      5.577402  11 H  s         
   357      5.249349  10 H  py              311     -5.137091   8 H  py        
   212     -4.801150   5 C  d -2            124      4.350421   3 C  d  2      
 
 Vector   81  Occ=0.000000D+00  E= 3.818551D-01
              MO Center=  3.5D-02, -5.6D-01, -8.8D-06, r^2= 1.6D+01
   Bfn.  Coefficient  Atom+Function         Bfn.  Coefficient  Atom+Function  
  ----- ------------  ---------------      ----- ------------  ---------------
   166      9.113769   4 C  d -2            333      7.077884   9 H  px        
   150     -6.668866   4 C  px              216     -6.632308   5 C  d  2      
   124      6.185960   3 C  d  2            279      5.896098   7 H  s         
   371     -5.896273  11 H  s               310      5.144602   8 H  px        
   356      5.076166  10 H  px               96     -4.850518   3 C  s         
 
 Vector   82  Occ=0.000000D+00  E= 3.930211D-01
              MO Center= -2.9D-02,  4.6D-01,  1.9D-04, r^2= 1.5D+01
   Bfn.  Coefficient  Atom+Function         Bfn.  Coefficient  Atom+Function  
  ----- ------------  ---------------      ----- ------------  ---------------
    12     12.024453   1 C  px               51    -10.811575   2 C  s         
   235     10.812277   6 C  s                78     -9.084236   2 C  d  2      
   262      8.779721   6 C  d  2             15     -6.729740   1 C  px        
   216      6.572923   5 C  d  2            153     -5.824600   4 C  px        
   379     -5.805894  11 H  px              124     -5.750046   3 C  d  2      
 
 Vector   83  Occ=0.000000D+00  E= 3.964357D-01
              MO Center= -5.2D-02,  8.3D-01,  2.1D-04, r^2= 1.2D+01
   Bfn.  Coefficient  Atom+Function         Bfn.  Coefficient  Atom+Function  
  ----- ------------  ---------------      ----- ------------  ---------------
   152     -7.543139   4 C  pz              106      7.298878   3 C  pz        
   198      7.299017   5 C  pz               60     -6.429922   2 C  pz        
   244     -6.429984   6 C  pz              167     -6.311269   4 C  d -1      
   215      5.103182   5 C  d  1            123     -4.698074   3 C  d  1      
    14      4.528847   1 C  pz              259      4.029127   6 C  d -1      
 
 Vector   84  Occ=0.000000D+00  E= 4.018805D-01
              MO Center= -3.6D-02,  5.7D-01, -6.8D-04, r^2= 1.5D+01
   Bfn.  Coefficient  Atom+Function         Bfn.  Coefficient  Atom+Function  
  ----- ------------  ---------------      ----- ------------  ---------------
     5     53.529228   1 C  s                51    -20.281353   2 C  s         
   235    -20.278796   6 C  s                97    -17.791377   3 C  s         
   189    -17.788888   5 C  s               143     12.234002   4 C  s         
   142    -10.019357   4 C  s                 4     -9.875993   1 C  s         
    50     -8.225960   2 C  s               234     -8.226457   6 C  s         
 
 Vector   85  Occ=0.000000D+00  E= 4.056637D-01
              MO Center= -1.9D-03,  3.0D-02, -1.1D-04, r^2= 1.3D+01
   Bfn.  Coefficient  Atom+Function         Bfn.  Coefficient  Atom+Function  
  ----- ------------  ---------------      ----- ------------  ---------------
[...]
     Occ.   21 alpha a   ---  Virt.   27 alpha a   -0.92273 X
     Occ.   21 alpha a   ---  Virt.   38 alpha a    0.12151 X
     Occ.   15 beta  a   ---  Virt.   21 beta  a   -0.09083 X
     Occ.   19 beta  a   ---  Virt.   24 beta  a   -0.19502 X
     Occ.   20 beta  a   ---  Virt.   22 beta  a    0.12621 X
  ----------------------------------------------------------------------------
  Root  27         a              0.252282346 a.u.                6.8650 eV 
  <S2> =   1.8853
  ----------------------------------------------------------------------------
     Transition Moments    X -0.00002   Y -0.00001   Z  0.00060
     Transition Moments   XX -0.00001  XY  0.00002  XZ -0.39237
     Transition Moments   YY -0.00007  YZ -0.02432  ZZ -0.00002
     Dipole Oscillator Strength                    0.0000000609
     Electric Quadrupole                           0.0000000132
     Magnetic Dipole                               0.0000000091
     Total Oscillator Strength                     0.0000000833
 
     Occ.   19 alpha a   ---  Virt.   25 alpha a    0.29834 X
     Occ.   20 alpha a   ---  Virt.   26 alpha a    0.94607 X
     Occ.   20 alpha a   ---  Virt.   35 alpha a   -0.05993 X
     Occ.   20 alpha a   ---  Virt.   36 alpha a   -0.06449 X
     Occ.   19 beta  a   ---  Virt.   26 beta  a   -0.06310 X
  ----------------------------------------------------------------------------
  Root  28         a              0.252382068 a.u.                6.8677 eV 
  <S2> =   1.6562
  ----------------------------------------------------------------------------
     Transition Moments    X -0.00007   Y -0.00001   Z -0.24876
     Transition Moments   XX -0.00004  XY  0.00003  XZ  0.00989
     Transition Moments   YY -0.00013  YZ -0.17156  ZZ -0.00003
     Dipole Oscillator Strength                    0.0104117057
     Electric Quadrupole                           0.0000000025
     Magnetic Dipole                               0.0000000314
     Total Oscillator Strength                     0.0104117396
 
     Occ.   19 alpha a   ---  Virt.   26 alpha a   -0.98350 X
     Occ.   19 alpha a   ---  Virt.   35 alpha a    0.07102 X
     Occ.   19 alpha a   ---  Virt.   36 alpha a    0.07413 X
     Occ.   20 alpha a   ---  Virt.   25 alpha a   -0.10157 X
     Occ.   20 beta  a   ---  Virt.   26 beta  a   -0.05213 X
  ----------------------------------------------------------------------------
  Root  29         a              0.253585509 a.u.                6.9004 eV 
  <S2> =   1.6203
  ----------------------------------------------------------------------------
     Transition Moments    X  0.00004   Y -0.00002   Z -0.00000
     Transition Moments   XX -0.00003  XY  0.00005  XZ -0.49141
     Transition Moments   YY -0.00011  YZ -0.03097  ZZ -0.00003
     Dipole Oscillator Strength                    0.0000000004
     Electric Quadrupole                           0.0000000211
     Magnetic Dipole                               0.0000000107
     Total Oscillator Strength                     0.0000000322
 
     Occ.   20 alpha a   ---  Virt.   26 alpha a    0.06847 X
     Occ.   19 beta  a   ---  Virt.   26 beta  a    0.98465 X
     Occ.   19 beta  a   ---  Virt.   35 beta  a   -0.05747 X
     Occ.   19 beta  a   ---  Virt.   36 beta  a   -0.07413 X
     Occ.   20 beta  a   ---  Virt.   25 beta  a    0.10391 X
  ----------------------------------------------------------------------------
  Root  30         a              0.254623765 a.u.                6.9287 eV 
  <S2> =   0.7699
  ----------------------------------------------------------------------------
     Transition Moments    X  1.52491   Y  0.09697   Z -0.00003
     Transition Moments   XX  0.02099  XY -0.15868  XZ  0.00004
     Transition Moments   YY -0.01780  YZ -0.00002  ZZ  0.00020
     Dipole Oscillator Strength                    0.3963231424
     Electric Quadrupole                           0.0000000022
     Magnetic Dipole                               0.0000000088
     Total Oscillator Strength                     0.3963231534
 
     Occ.   19 alpha a   ---  Virt.   22 alpha a    0.38646 X
     Occ.   19 alpha a   ---  Virt.   22 alpha a   -0.05399 Y
     Occ.   20 alpha a   ---  Virt.   23 alpha a   -0.43524 X
     Occ.   20 alpha a   ---  Virt.   23 alpha a    0.05185 Y
     Occ.   20 alpha a   ---  Virt.   29 alpha a    0.14601 X
     Occ.   21 alpha a   ---  Virt.   25 alpha a   -0.07066 X
     Occ.   21 alpha a   ---  Virt.   27 alpha a    0.34323 X
     Occ.   13 beta  a   ---  Virt.   21 beta  a   -0.12488 X
     Occ.   15 beta  a   ---  Virt.   21 beta  a   -0.28115 X
     Occ.   19 beta  a   ---  Virt.   24 beta  a   -0.50856 X
     Occ.   19 beta  a   ---  Virt.   29 beta  a    0.14418 X
     Occ.   20 beta  a   ---  Virt.   22 beta  a    0.35402 X
     Occ.   20 beta  a   ---  Virt.   22 beta  a   -0.05702 Y
  ----------------------------------------------------------------------------
  Root  31         a              0.254824031 a.u.                6.9341 eV 
  <S2> =   0.8010
  ----------------------------------------------------------------------------
     Transition Moments    X -0.04106   Y  0.62100   Z  0.00000
     Transition Moments   XX  0.66831  XY -0.07700  XZ -0.00002
     Transition Moments   YY  1.88896  YZ  0.00003  ZZ  0.15083
     Dipole Oscillator Strength                    0.0658010434
     Electric Quadrupole                           0.0000000707
     Magnetic Dipole                               0.0000000000
     Total Oscillator Strength                     0.0658011142
 
     Occ.   19 alpha a   ---  Virt.   23 alpha a   -0.10460 X
     Occ.   20 alpha a   ---  Virt.   22 alpha a   -0.11032 X
     Occ.   21 alpha a   ---  Virt.   26 alpha a   -0.18354 X
     Occ.   21 alpha a   ---  Virt.   28 alpha a    0.91371 X
     Occ.   21 alpha a   ---  Virt.   30 alpha a    0.12863 X
     Occ.   21 alpha a   ---  Virt.   31 alpha a    0.16226 X
     Occ.   21 alpha a   ---  Virt.   48 alpha a   -0.05636 X
     Occ.   16 beta  a   ---  Virt.   21 beta  a   -0.17852 X
     Occ.   19 beta  a   ---  Virt.   22 beta  a   -0.10506 X
     Occ.   20 beta  a   ---  Virt.   24 beta  a   -0.09534 X
  ----------------------------------------------------------------------------
  Root  32         a              0.260189872 a.u.                7.0801 eV 
  <S2> =   0.8006
  ----------------------------------------------------------------------------
     Transition Moments    X  0.00001   Y -0.00002   Z  0.09439
     Transition Moments   XX -0.00001  XY -0.00000  XZ -0.04426
     Transition Moments   YY -0.00005  YZ  0.70258  ZZ -0.00000
     Dipole Oscillator Strength                    0.0015454775
     Electric Quadrupole                           0.0000000465
     Magnetic Dipole                               0.0000000328
     Total Oscillator Strength                     0.0015455567
 
     Occ.   21 alpha a   ---  Virt.   29 alpha a   -0.97942 X
     Occ.   21 alpha a   ---  Virt.   33 alpha a   -0.17927 X
  ----------------------------------------------------------------------------
  Root  33         a              0.265830621 a.u.                7.2336 eV 
  <S2> =   1.7814
  ----------------------------------------------------------------------------
     Transition Moments    X -0.00001   Y -0.00002   Z -0.00000
     Transition Moments   XX  0.00006  XY -0.00001  XZ -0.54487
     Transition Moments   YY  0.00003  YZ -0.03433  ZZ  0.00004
     Dipole Oscillator Strength                    0.0000000000
     Electric Quadrupole                           0.0000000298
     Magnetic Dipole                               0.0000000005
     Total Oscillator Strength                     0.0000000303
 
     Occ.   20 beta  a   ---  Virt.   27 beta  a   -0.99101 X
     Occ.   20 beta  a   ---  Virt.   38 beta  a    0.09652 X
  ----------------------------------------------------------------------------
  Root  34         a              0.267185897 a.u.                7.2705 eV 
  <S2> =   0.8130
  ----------------------------------------------------------------------------
     Transition Moments    X  0.07382   Y -1.17011   Z  0.00000
     Transition Moments   XX -0.07348  XY -0.05090  XZ  0.00001
     Transition Moments   YY  0.73102  YZ  0.00005  ZZ  0.02113
     Dipole Oscillator Strength                    0.2448519710
     Electric Quadrupole                           0.0000000199
     Magnetic Dipole                               0.0000000000
     Total Oscillator Strength                     0.2448519909
 
     Occ.   17 alpha a   ---  Virt.   23 alpha a   -0.08002 X
     Occ.   19 alpha a   ---  Virt.   23 alpha a    0.30464 X
     Occ.   19 alpha a   ---  Virt.   29 alpha a    0.15533 X
     Occ.   20 alpha a   ---  Virt.   22 alpha a    0.21701 X
     Occ.   21 alpha a   ---  Virt.   28 alpha a    0.28956 X
     Occ.   21 alpha a   ---  Virt.   30 alpha a   -0.49159 X
     Occ.   21 alpha a   ---  Virt.   31 alpha a    0.09060 X
     Occ.   14 beta  a   ---  Virt.   21 beta  a   -0.08132 X
     Occ.   16 beta  a   ---  Virt.   21 beta  a    0.48144 X
     Occ.   19 beta  a   ---  Virt.   22 beta  a    0.21663 X
     Occ.   20 beta  a   ---  Virt.   24 beta  a    0.30620 X
     Occ.   20 beta  a   ---  Virt.   29 beta  a    0.30919 X
  ----------------------------------------------------------------------------
  Root  35         a              0.270421328 a.u.                7.3585 eV 
  <S2> =   2.7058
  ----------------------------------------------------------------------------
     Transition Moments    X -0.00001   Y -0.00001   Z -0.00889
     Transition Moments   XX  0.00001  XY -0.00001  XZ  0.00902
     Transition Moments   YY  0.00002  YZ -0.14182  ZZ -0.00000
     Dipole Oscillator Strength                    0.0000142380
     Electric Quadrupole                           0.0000000021
     Magnetic Dipole                               0.0000000000
     Total Oscillator Strength                     0.0000142402
 
     Occ.   20 alpha a   ---  Virt.   27 alpha a    0.79731 X
     Occ.   20 alpha a   ---  Virt.   38 alpha a   -0.08785 X
     Occ.   19 beta  a   ---  Virt.   27 beta  a   -0.57922 X
     Occ.   19 beta  a   ---  Virt.   38 beta  a    0.06841 X
     Occ.   20 beta  a   ---  Virt.   30 beta  a   -0.05631 X
  ----------------------------------------------------------------------------
  Root  36         a              0.270826010 a.u.                7.3696 eV 
  <S2> =   2.7408
  ----------------------------------------------------------------------------
     Transition Moments    X -0.04966   Y -0.00309   Z  0.00000
     Transition Moments   XX -0.00393  XY  0.03017  XZ -0.00001
     Transition Moments   YY  0.00391  YZ  0.00003  ZZ -0.00003
     Dipole Oscillator Strength                    0.0004469278
     Electric Quadrupole                           0.0000000001
     Magnetic Dipole                               0.0000000018
     Total Oscillator Strength                     0.0004469297
 
     Occ.   17 alpha a   ---  Virt.   22 alpha a   -0.59839 X
     Occ.   17 alpha a   ---  Virt.   41 alpha a    0.05208 X
     Occ.   19 alpha a   ---  Virt.   32 alpha a    0.08229 X
     Occ.   20 alpha a   ---  Virt.   29 alpha a   -0.16442 X
     Occ.   20 alpha a   ---  Virt.   44 alpha a    0.22676 X
     Occ.   20 alpha a   ---  Virt.   47 alpha a   -0.17373 X
     Occ.   17 beta  a   ---  Virt.   22 beta  a    0.64518 X
     Occ.   17 beta  a   ---  Virt.   41 beta  a   -0.05398 X
     Occ.   19 beta  a   ---  Virt.   29 beta  a    0.10221 X
     Occ.   19 beta  a   ---  Virt.   44 beta  a   -0.20025 X
     Occ.   19 beta  a   ---  Virt.   47 beta  a    0.16630 X
     Occ.   20 beta  a   ---  Virt.   31 beta  a   -0.09931 X
  ----------------------------------------------------------------------------
  Root  37         a              0.271414391 a.u.                7.3856 eV 
  <S2> =   0.8105
  ----------------------------------------------------------------------------
     Transition Moments    X  0.00000   Y  0.00009   Z  0.02129
     Transition Moments   XX -0.00017  XY  0.00004  XZ -0.05328
     Transition Moments   YY  0.00004  YZ  0.84437  ZZ -0.00002
     Dipole Oscillator Strength                    0.0000819956
     Electric Quadrupole                           0.0000000762
     Magnetic Dipole                               0.0000000043
     Total Oscillator Strength                     0.0000820761
 
     Occ.   20 alpha a   ---  Virt.   27 alpha a   -0.58313 X
     Occ.   19 beta  a   ---  Virt.   27 beta  a   -0.80187 X
     Occ.   19 beta  a   ---  Virt.   38 beta  a    0.07485 X
     Occ.   20 beta  a   ---  Virt.   28 beta  a    0.06163 X
  ----------------------------------------------------------------------------
  Root  38         a              0.271454345 a.u.                7.3867 eV 
  <S2> =   0.9486
  ----------------------------------------------------------------------------
     Transition Moments    X  0.04220   Y -0.66921   Z  0.00001
     Transition Moments   XX  1.12821  XY  0.11985  XZ -0.00002
     Transition Moments   YY -0.76618  YZ  0.00019  ZZ  0.24529
     Dipole Oscillator Strength                    0.0813683703
     Electric Quadrupole                           0.0000000972
     Magnetic Dipole                               0.0000000000
     Total Oscillator Strength                     0.0813684675
 
     Occ.   17 alpha a   ---  Virt.   23 alpha a   -0.07864 X
     Occ.   19 alpha a   ---  Virt.   23 alpha a    0.14015 X
     Occ.   20 alpha a   ---  Virt.   22 alpha a    0.07643 X
     Occ.   21 alpha a   ---  Virt.   28 alpha a    0.05276 X
     Occ.   21 alpha a   ---  Virt.   30 alpha a    0.79057 X
     Occ.   21 alpha a   ---  Virt.   31 alpha a   -0.21803 X
     Occ.   21 alpha a   ---  Virt.   35 alpha a    0.08167 X
     Occ.   21 alpha a   ---  Virt.   40 alpha a   -0.05624 X
     Occ.   14 beta  a   ---  Virt.   21 beta  a   -0.07640 X
     Occ.   16 beta  a   ---  Virt.   21 beta  a    0.25456 X
     Occ.   19 beta  a   ---  Virt.   22 beta  a    0.08932 X
     Occ.   20 beta  a   ---  Virt.   24 beta  a    0.14346 X
     Occ.   20 beta  a   ---  Virt.   29 beta  a    0.41193 X
  ----------------------------------------------------------------------------
  Root  39         a              0.272705626 a.u.                7.4207 eV 
  <S2> =   1.7259
  ----------------------------------------------------------------------------
     Transition Moments    X  0.00001   Y -0.00000   Z -0.00000
     Transition Moments   XX -0.00007  XY  0.00002  XZ  0.54854
     Transition Moments   YY -0.00000  YZ  0.03466  ZZ -0.00002
     Dipole Oscillator Strength                    0.0000000000
     Electric Quadrupole                           0.0000000326
     Magnetic Dipole                               0.0000000014
     Total Oscillator Strength                     0.0000000340
 
     Occ.   19 alpha a   ---  Virt.   27 alpha a    0.98956 X
     Occ.   19 alpha a   ---  Virt.   38 alpha a   -0.09590 X
  ----------------------------------------------------------------------------
  Root  40         a              0.272904173 a.u.                7.4261 eV 
  <S2> =   1.9824
  ----------------------------------------------------------------------------
     Transition Moments    X  0.00001   Y -0.00003   Z -0.04270
     Transition Moments   XX -0.00003  XY -0.00003  XZ  0.03168
     Transition Moments   YY -0.00004  YZ -0.50374  ZZ -0.00001
     Dipole Oscillator Strength                    0.0003316681
     Electric Quadrupole                           0.0000000276
     Magnetic Dipole                               0.0000000053
     Total Oscillator Strength                     0.0003317010
 
     Occ.   19 alpha a   ---  Virt.   28 alpha a    0.11982 X
     Occ.   20 alpha a   ---  Virt.   27 alpha a   -0.07135 X
     Occ.   17 beta  a   ---  Virt.   21 beta  a    0.05573 X
     Occ.   20 beta  a   ---  Virt.   28 beta  a   -0.97649 X
     Occ.   20 beta  a   ---  Virt.   30 beta  a   -0.05955 X
     Occ.   20 beta  a   ---  Virt.   32 beta  a   -0.07483 X
     Occ.   20 beta  a   ---  Virt.   43 beta  a   -0.08152 X
 
              Target root =      1
          Target symmetry = none
      Ground state energy =   -231.646306149666
        Excitation energy =      0.106925847513
     Excited state energy =   -231.539380302153
 
  stored tddft:energy   -231.539380302153     

 Task  times  cpu:     2901.9s     wall:     2991.1s
 
 
                                NWChem Input Module
                                -------------------
 
 
 Summary of allocated global arrays
-----------------------------------
  No active global arrays



                         GA Statistics for process    0
                         ------------------------------

       create   destroy   get      put      acc     scatter   gather  read&inc
calls: 9523     9523     1.02e+07 4.03e+06 2.93e+06 5640        0      371     
number of processes/call 1.31e+00 1.75e+00 1.94e+00 0.00e+00 0.00e+00
bytes total:             9.32e+10 1.09e+10 1.02e+11 6.26e+04 0.00e+00 2.97e+03
bytes remote:            6.97e+10 1.10e+09 9.73e+10 0.00e+00 0.00e+00 0.00e+00
Max memory consumed for GA by this process: 205086464 bytes
 
MA_summarize_allocated_blocks: starting scan ...
MA_summarize_allocated_blocks: scan completed: 0 heap blocks, 0 stack blocks
MA usage statistics:

	allocation statistics:
					      heap	     stack
					      ----	     -----
	current number of blocks	         0	         0
	maximum number of blocks	        20	        52
	current total bytes		         0	         0
	maximum total bytes		   1166000	  68276408
	maximum total K-bytes		      1166	     68277
	maximum total M-bytes		         2	        69
 
 
                                     CITATION
                                     --------
                Please cite the following reference when publishing
                           results obtained with NWChem:
 
                 M. Valiev, E.J. Bylaska, N. Govind, K. Kowalski,
              T.P. Straatsma, H.J.J. van Dam, D. Wang, J. Nieplocha,
                        E. Apra, T.L. Windus, W.A. de Jong
                 "NWChem: a comprehensive and scalable open-source
                  solution for large scale molecular simulations"
                      Comput. Phys. Commun. 181, 1477 (2010)
                           doi:10.1016/j.cpc.2010.04.018
 
                                      AUTHORS
                                      -------
          E. Apra, E. J. Bylaska, W. A. de Jong, N. Govind, K. Kowalski,
       T. P. Straatsma, M. Valiev, H. J. J. van Dam, D. Wang, T. L. Windus,
        J. Hammond, J. Autschbach, K. Bhaskaran-Nair, J. Brabec, K. Lopata,
    S. A. Fischer, S. Krishnamoorthy, M. Jacquelin, W. Ma, M. Klemm, O. Villa,
      Y. Chen, V. Anisimov, F. Aquino, S. Hirata, M. T. Hackler, V. Konjkov,
            D. Mejia-Rodriguez, T. Risthaus, M. Malagoli, A. Marenich,
   A. Otero-de-la-Roza, J. Mullin, P. Nichols, R. Peverati, J. Pittner, Y. Zhao,
        P.-D. Fan, A. Fonari, M. J. Williamson, R. J. Harrison, J. R. Rehr,
      M. Dupuis, D. Silverstein, D. M. A. Smith, J. Nieplocha, V. Tipparaju,
    M. Krishnan, B. E. Van Kuiken, A. Vazquez-Mayagoitia, L. Jensen, M. Swart,
      Q. Wu, T. Van Voorhis, A. A. Auer, M. Nooijen, L. D. Crosby, E. Brown,
      G. Cisneros, G. I. Fann, H. Fruchtl, J. Garza, K. Hirao, R. A. Kendall,
      J. A. Nichols, K. Tsemekhman, K. Wolinski, J. Anchell, D. E. Bernholdt,
      P. Borowski, T. Clark, D. Clerc, H. Dachsel, M. J. O. Deegan, K. Dyall,
    D. Elwood, E. Glendening, M. Gutowski, A. C. Hess, J. Jaffe, B. G. Johnson,
     J. Ju, R. Kobayashi, R. Kutteh, Z. Lin, R. Littlefield, X. Long, B. Meng,
      T. Nakajima, S. Niu, L. Pollack, M. Rosing, K. Glaesemann, G. Sandrone,
      M. Stave, H. Taylor, G. Thomas, J. H. van Lenthe, A. T. Wong, Z. Zhang.

 Total times  cpu:     2902.0s     wall:     2991.3s
