 argument  1 = /storage/home/j/jbb5516/normalModes/mode1174.68-p.nw
 


============================== echo of input deck ==============================
echo
start

title "None"

geometry
C    -0.08747133    1.38824004    0.00000005
C    -1.26745633    0.69088483   -0.00000002
C    -1.16756057   -0.70446373   -0.00000002
C     0.08290336   -1.31602622    0.00000004
C     1.24676025   -0.55233333   -0.00000001
C     1.17072232    0.84450766    0.00000005
H    -2.23298291    1.17868884   -0.00000010
H    -2.06900927   -1.30385191   -0.00000009
H     0.15078929   -2.39542223   -0.00000000
H     2.21638116   -1.03369898   -0.00000013
H     2.06741924    1.44959376   -0.00000010
symmetry c1
end

basis spherical
 * library "aug-cc-pvtz"
end

dft
 direct
 mult 2
 iterations 500
 xc b3lyp
end

tddft
 nroots 40
 notriplet
 algorithm 1
end
task tddft energy
================================================================================


                                         
                                         
 
 
              Northwest Computational Chemistry Package (NWChem) 6.8
              ------------------------------------------------------
 
 
                    Environmental Molecular Sciences Laboratory
                       Pacific Northwest National Laboratory
                                Richland, WA 99352
 
                              Copyright (c) 1994-2017
                       Pacific Northwest National Laboratory
                            Battelle Memorial Institute
 
             NWChem is an open-source computational chemistry package
                        distributed under the terms of the
                      Educational Community License (ECL) 2.0
             A copy of the license is included with this distribution
                              in the LICENSE.TXT file
 
                                  ACKNOWLEDGMENT
                                  --------------

            This software and its documentation were developed at the
            EMSL at Pacific Northwest National Laboratory, a multiprogram
            national laboratory, operated for the U.S. Department of Energy
            by Battelle under Contract Number DE-AC05-76RL01830. Support
            for this work was provided by the Department of Energy Office
            of Biological and Environmental Research, Office of Basic
            Energy Sciences, and the Office of Advanced Scientific Computing.


           Job information
           ---------------

    hostname        = comp-sc-0143.acib.production.int.aci.ics.psu.edu
    program         = /gpfs/group/lxj18/default/jeffprograms/nwchem-6.8.1/bin/LINUX64/nwchem
    date            = Sun Sep 20 15:02:53 2020

    compiled        = Wed_Oct_03_14:08:39_2018
    source          = /gpfs/group/lxj18/default/jeffprograms/nwchem-6.8.1
    nwchem branch   = 6.8.1
    nwchem revision = v6.8-143-gdb0d964
    ga revision     = 5.6.5
    use scalapack   = F
    input           = /storage/home/j/jbb5516/normalModes/mode1174.68-p.nw
    prefix          = mode1174.68-p.
    data base       = ./mode1174.68-p.db
    status          = startup
    nproc           =       20
    time left       =     -1s



           Memory information
           ------------------

    heap     =   13107200 doubles =    100.0 Mbytes
    stack    =   13107197 doubles =    100.0 Mbytes
    global   =   26214400 doubles =    200.0 Mbytes (distinct from heap & stack)
    total    =   52428797 doubles =    400.0 Mbytes
    verify   = yes
    hardfail = no 


           Directory information
           ---------------------
 
  0 permanent = .
  0 scratch   = .
 
 
 
 
                                NWChem Input Module
                                -------------------
 
 
                                       None
                                       ----

 Scaling coordinates for geometry "geometry" by  1.889725989
 (inverse scale =  0.529177249)

 Turning off AUTOSYM since
 SYMMETRY directive was detected!
 

          ------
          auto-z
          ------
 
 
                             Geometry "geometry" -> ""
                             -------------------------
 
 Output coordinates in angstroms (scale by  1.889725989 to convert to a.u.)
 
  No.       Tag          Charge          X              Y              Z
 ---- ---------------- ---------- -------------- -------------- --------------
    1 C                    6.0000    -0.08747093     1.38823602     0.00000005
    2 C                    6.0000    -1.26745593     0.69088081    -0.00000002
    3 C                    6.0000    -1.16756017    -0.70446775    -0.00000002
    4 C                    6.0000     0.08290376    -1.31603024     0.00000004
    5 C                    6.0000     1.24676065    -0.55233735    -0.00000001
    6 C                    6.0000     1.17072272     0.84450364     0.00000005
    7 H                    1.0000    -2.23298251     1.17868482    -0.00000010
    8 H                    1.0000    -2.06900887    -1.30385593    -0.00000009
    9 H                    1.0000     0.15078969    -2.39542625    -0.00000000
   10 H                    1.0000     2.21638156    -1.03370300    -0.00000013
   11 H                    1.0000     2.06741964     1.44958974    -0.00000010
 
      Atomic Mass 
      ----------- 
 
      C                 12.000000
      H                  1.007825
 

 Effective nuclear repulsion energy (a.u.)     195.0632311773

            Nuclear Dipole moment (a.u.) 
            ----------------------------
        X                 Y               Z
 ---------------- ---------------- ----------------
    -0.0000000000     0.0000000000     0.0000000000
 


                                Z-matrix (autoz)
                                -------- 

 Units are Angstrom for bonds and degrees for angles
 
      Type          Name      I     J     K     L     M      Value
      ----------- --------  ----- ----- ----- ----- ----- ----------
    1 Stretch                  1     2                       1.37065
    2 Stretch                  1     6                       1.37066
    3 Stretch                  2     3                       1.39892
    4 Stretch                  2     7                       1.08176
    5 Stretch                  3     4                       1.39200
    6 Stretch                  3     8                       1.08253
    7 Stretch                  4     5                       1.39205
    8 Stretch                  4     9                       1.08153
    9 Stretch                  5     6                       1.39891
   10 Stretch                  5    10                       1.08253
   11 Stretch                  6    11                       1.08176
   12 Bend                     1     2     3               116.48758
   13 Bend                     1     2     7               122.61364
   14 Bend                     1     6     5               116.48760
   15 Bend                     1     6    11               122.61700
   16 Bend                     2     1     6               126.04575
   17 Bend                     2     3     4               120.15673
   18 Bend                     2     3     8               119.52566
   19 Bend                     3     2     7               120.89878
   20 Bend                     3     4     5               120.66635
   21 Bend                     3     4     9               119.66054
   22 Bend                     4     3     8               120.31761
   23 Bend                     4     5     6               120.15600
   24 Bend                     4     5    10               120.32617
   25 Bend                     5     4     9               119.67312
   26 Bend                     5     6    11               120.89540
   27 Bend                     6     5    10               119.51783
   28 Torsion                  1     2     3     4           0.00000
   29 Torsion                  1     2     3     8        -180.00000
   30 Torsion                  1     6     5     4           0.00000
   31 Torsion                  1     6     5    10         180.00000
   32 Torsion                  2     1     6     5           0.00000
   33 Torsion                  2     1     6    11         180.00000
   34 Torsion                  2     3     4     5           0.00000
   35 Torsion                  2     3     4     9        -180.00000
   36 Torsion                  3     2     1     6           0.00000
   37 Torsion                  3     4     5     6           0.00000
   38 Torsion                  3     4     5    10        -180.00000
   39 Torsion                  4     3     2     7         180.00000
   40 Torsion                  4     5     6    11        -180.00000
   41 Torsion                  5     4     3     8         180.00000
   42 Torsion                  6     1     2     7        -180.00000
   43 Torsion                  6     5     4     9        -180.00000
   44 Torsion                  7     2     3     8           0.00000
   45 Torsion                  8     3     4     9           0.00000
   46 Torsion                  9     4     5    10           0.00000
   47 Torsion                 10     5     6    11           0.00000
 
 
            XYZ format geometry
            -------------------
    11
 geometry
 C                    -0.08747093     1.38823602     0.00000005
 C                    -1.26745593     0.69088081    -0.00000002
 C                    -1.16756017    -0.70446775    -0.00000002
 C                     0.08290376    -1.31603024     0.00000004
 C                     1.24676065    -0.55233735    -0.00000001
 C                     1.17072272     0.84450364     0.00000005
 H                    -2.23298251     1.17868482    -0.00000010
 H                    -2.06900887    -1.30385593    -0.00000009
 H                     0.15078969    -2.39542625    -0.00000000
 H                     2.21638156    -1.03370300    -0.00000013
 H                     2.06741964     1.44958974    -0.00000010
 
 ==============================================================================
                                internuclear distances
 ------------------------------------------------------------------------------
       center one      |      center two      | atomic units |  angstroms
 ------------------------------------------------------------------------------
    2 C                |   1 C                |     2.59014  |     1.37065
    3 C                |   2 C                |     2.64358  |     1.39892
    4 C                |   3 C                |     2.63050  |     1.39200
    5 C                |   4 C                |     2.63058  |     1.39205
    6 C                |   1 C                |     2.59016  |     1.37066
    6 C                |   5 C                |     2.64355  |     1.39891
    7 H                |   2 C                |     2.04422  |     1.08176
    8 H                |   3 C                |     2.04569  |     1.08253
    9 H                |   4 C                |     2.04379  |     1.08153
   10 H                |   5 C                |     2.04569  |     1.08253
   11 H                |   6 C                |     2.04422  |     1.08176
 ------------------------------------------------------------------------------
                         number of included internuclear distances:         11
 ==============================================================================



 ==============================================================================
                                 internuclear angles
 ------------------------------------------------------------------------------
        center 1       |       center 2       |       center 3       |  degrees
 ------------------------------------------------------------------------------
    2 C                |   1 C                |   6 C                |   126.05
    1 C                |   2 C                |   3 C                |   116.49
    1 C                |   2 C                |   7 H                |   122.61
    3 C                |   2 C                |   7 H                |   120.90
    2 C                |   3 C                |   4 C                |   120.16
    2 C                |   3 C                |   8 H                |   119.53
    4 C                |   3 C                |   8 H                |   120.32
    3 C                |   4 C                |   5 C                |   120.67
    3 C                |   4 C                |   9 H                |   119.66
    5 C                |   4 C                |   9 H                |   119.67
    4 C                |   5 C                |   6 C                |   120.16
    4 C                |   5 C                |  10 H                |   120.33
    6 C                |   5 C                |  10 H                |   119.52
    1 C                |   6 C                |   5 C                |   116.49
    1 C                |   6 C                |  11 H                |   122.62
    5 C                |   6 C                |  11 H                |   120.90
 ------------------------------------------------------------------------------
                            number of included internuclear angles:         16
 ==============================================================================





 Summary of "ao basis" -> "" (spherical)
 ------------------------------------------------------------------------------
       Tag                 Description            Shells   Functions and Types
 ---------------- ------------------------------  ------  ---------------------
 *                        aug-cc-pvtz                 on all atoms 


 
                                 NWChem DFT Module
                                 -----------------
 
 
                                       None
 
 
                      Basis "ao basis" -> "ao basis" (spherical)
                      -----
  C (Carbon)
  ----------
            Exponent  Coefficients 
       -------------- ---------------------------------------------------------
  1 S  8.23600000E+03  0.000531
  1 S  1.23500000E+03  0.004108
  1 S  2.80800000E+02  0.021087
  1 S  7.92700000E+01  0.081853
  1 S  2.55900000E+01  0.234817
  1 S  8.99700000E+00  0.434401
  1 S  3.31900000E+00  0.346129
  1 S  3.64300000E-01 -0.008983
 
  2 S  8.23600000E+03 -0.000113
  2 S  1.23500000E+03 -0.000878
  2 S  2.80800000E+02 -0.004540
  2 S  7.92700000E+01 -0.018133
  2 S  2.55900000E+01 -0.055760
  2 S  8.99700000E+00 -0.126895
  2 S  3.31900000E+00 -0.170352
  2 S  3.64300000E-01  0.598684
 
  3 S  9.05900000E-01  1.000000
 
  4 S  1.28500000E-01  1.000000
 
  5 S  4.40200000E-02  1.000000
 
  6 P  1.87100000E+01  0.014031
  6 P  4.13300000E+00  0.086866
  6 P  1.20000000E+00  0.290216
 
  7 P  3.82700000E-01  1.000000
 
  8 P  1.20900000E-01  1.000000
 
  9 P  3.56900000E-02  1.000000
 
 10 D  1.09700000E+00  1.000000
 
 11 D  3.18000000E-01  1.000000
 
 12 D  1.00000000E-01  1.000000
 
 13 F  7.61000000E-01  1.000000
 
 14 F  2.68000000E-01  1.000000
 
  H (Hydrogen)
  ------------
            Exponent  Coefficients 
       -------------- ---------------------------------------------------------
  1 S  3.38700000E+01  0.006068
  1 S  5.09500000E+00  0.045308
  1 S  1.15900000E+00  0.202822
 
  2 S  3.25800000E-01  1.000000
 
  3 S  1.02700000E-01  1.000000
 
  4 S  2.52600000E-02  1.000000
 
  5 P  1.40700000E+00  1.000000
 
  6 P  3.88000000E-01  1.000000
 
  7 P  1.02000000E-01  1.000000
 
  8 D  1.05700000E+00  1.000000
 
  9 D  2.47000000E-01  1.000000
 


 Summary of "ao basis" -> "ao basis" (spherical)
 ------------------------------------------------------------------------------
       Tag                 Description            Shells   Functions and Types
 ---------------- ------------------------------  ------  ---------------------
 C                        aug-cc-pvtz               14       46   5s4p3d2f
 H                        aug-cc-pvtz                9       23   4s3p2d




 Summary of "ao basis" -> "ao basis" (spherical)
 ------------------------------------------------------------------------------
       Tag                 Description            Shells   Functions and Types
 ---------------- ------------------------------  ------  ---------------------
 C                        aug-cc-pvtz               14       46   5s4p3d2f
 H                        aug-cc-pvtz                9       23   4s3p2d


  Caching 1-el integrals 
 
            General Information
            -------------------
          SCF calculation type: DFT
          Wavefunction type:  spin polarized.
          No. of atoms     :    11
          No. of electrons :    41
           Alpha electrons :    21
            Beta electrons :    20
          Charge           :     0
          Spin multiplicity:     2
          Use of symmetry is: off; symmetry adaption is: off
          Maximum number of iterations: 500
          This is a Direct SCF calculation.
          AO basis - number of functions:   391
                     number of shells:   129
          Convergence on energy requested:  1.00D-06
          Convergence on density requested:  1.00D-05
          Convergence on gradient requested:  5.00D-04
 
              XC Information
              --------------
                         B3LYP Method XC Potential
                     Hartree-Fock (Exact) Exchange  0.200          
                        Slater Exchange Functional  0.800 local    
                    Becke 1988 Exchange Functional  0.720 non-local
              Lee-Yang-Parr Correlation Functional  0.810          
                  VWN I RPA Correlation Functional  0.190 local    
 
             Grid Information
             ----------------
          Grid used for XC integration:  medium    
          Radial quadrature: Mura-Knowles        
          Angular quadrature: Lebedev. 
          Tag              B.-S. Rad. Rad. Pts. Rad. Cut. Ang. Pts.
          ---              ---------- --------- --------- ---------
          C                   0.70       49          15.0       434
          H                   0.35       45          17.0       434
          Grid pruning is: on 
          Number of quadrature shells:   519
          Spatial weights used:  Erf1
 
          Convergence Information
          -----------------------
          Convergence aids based upon iterative change in 
          total energy or number of iterations. 
          Levelshifting, if invoked, occurs when the 
          HOMO/LUMO gap drops below (HL_TOL):  1.00D-02
          DIIS, if invoked, will attempt to extrapolate 
          using up to (NFOCK): 10 stored Fock matrices.

                    Damping( 0%)  Levelshifting(0.5)       DIIS
                  --------------- ------------------- ---------------
          dE  on:    start            ASAP                start   
          dE off:    2 iters        500 iters           500 iters 

 
      Screening Tolerance Information
      -------------------------------
          Density screening/tol_rho:  1.00D-10
          AO Gaussian exp screening on grid/accAOfunc:  14
          CD Gaussian exp screening on grid/accCDfunc:  20
          XC Gaussian exp screening on grid/accXCfunc:  20
          Schwarz screening/accCoul:  1.00D-08

 
 WARNING : Found     7 linear dependencies 
 S eigenvalue threshold:     1.00000E-05
 Smallest S eigenvalue :     1.46151E-06
 Largest  S eigenvalue :     7.77654E-06
 

 !! The overlap matrix has   7 vectors deemed linearly dependent with
    eigenvalues:
 1.46D-06 2.24D-06 2.82D-06 3.55D-06 5.28D-06 5.95D-06 7.78D-06
 
 
      Superposition of Atomic Density Guess
      -------------------------------------
 
 Sum of atomic energies:        -228.52307259
 
      Non-variational initial energy
      ------------------------------

 Total energy =    -232.667163
 1-e energy   =    -691.327128
 2-e energy   =     263.596734
 HOMO         =      -0.183266
 LUMO         =      -0.022127
 
   Time after variat. SCF:      9.5
   Time prior to 1st pass:      9.5

 Grid_pts file          = ./mode1174.68-p.gridpts.00
 Record size in doubles =  12289        No. of grid_pts per rec  =   3070
 Max. records in memory =      6        Max. recs in file   = 221256569

 Grid integrated density:      40.999765736727
 Requested integration accuracy:   0.10E-05

           Memory utilization after 1st SCF pass: 
           Heap Space remaining (MW):       12.96            12961280
          Stack Space remaining (MW):       13.10            13103676

   convergence    iter        energy       DeltaE   RMS-Dens  Diis-err    time
 ---------------- ----- ----------------- --------- --------- ---------  ------
 d= 0,ls=0.0,diis     1   -231.5816776920 -4.27D+02  6.16D-02  2.09D-01    20.3
                                                     6.97D-02  1.96D-01
 d= 0,ls=0.0,diis     2   -231.6398516585 -5.82D-02  6.07D-02  1.21D-02    30.9
                                                     6.86D-02  1.24D-02
 d= 0,ls=0.0,diis     3   -231.6446289306 -4.78D-03  1.27D-03  3.40D-03    41.5
                                                     1.38D-03  3.45D-03
 d= 0,ls=0.0,diis     4   -231.6457695853 -1.14D-03  2.02D-04  1.12D-03    52.2
                                                     2.06D-04  1.06D-03
 d= 0,ls=0.0,diis     5   -231.6462846436 -5.15D-04  3.40D-05  4.25D-05    62.8
                                                     3.12D-05  4.84D-05
  Resetting Diis
 d= 0,ls=0.0,diis     6   -231.6463126129 -2.80D-05  1.11D-05  7.71D-06    73.5
                                                     1.06D-05  6.21D-06
 d= 0,ls=0.0,diis     7   -231.6463187797 -6.17D-06  7.25D-06  2.11D-06    84.2
                                                     6.48D-06  2.38D-06
 d= 0,ls=0.0,diis     8   -231.6463198934 -1.11D-06  3.03D-06  5.39D-06    94.8
                                                     2.69D-06  4.73D-06
 d= 0,ls=0.0,diis     9   -231.6463231278 -3.23D-06  3.69D-06  3.86D-07   105.5
                                                     3.26D-06  3.28D-07
 d= 0,ls=0.0,diis    10   -231.6463244163 -1.29D-06  2.19D-06  1.94D-07   116.1
                                                     2.49D-06  2.93D-07
 d= 0,ls=0.0,diis    11   -231.6463248631 -4.47D-07  5.90D-07  1.16D-08   126.8
                                                     5.13D-07  9.09D-09


         Total DFT energy =     -231.646324863066
      One electron energy =     -696.559210379448
           Coulomb energy =      304.258790836896
    Exchange-Corr. energy =      -34.409136497772
 Nuclear repulsion energy =      195.063231177258

 Numeric. integr. density =       40.999984490407

     Total iterative time =    117.3s


 
                    DFT Final Alpha Molecular Orbital Analysis
                    ------------------------------------------
 
 Vector    1  Occ=1.000000D+00  E=-1.020533D+01
              MO Center= -8.7D-02,  1.4D+00,  4.8D-08, r^2= 3.0D-02
   Bfn.  Coefficient  Atom+Function         Bfn.  Coefficient  Atom+Function  
  ----- ------------  ---------------      ----- ------------  ---------------
     1      0.984171   1 C  s                 3      0.058854   1 C  s         
    50     -0.038135   2 C  s               234     -0.038136   6 C  s         
   143      0.037946   4 C  s               279      0.037772   7 H  s         
   371      0.037768  11 H  s                51     -0.030649   2 C  s         
   235     -0.030653   6 C  s                47      0.025063   2 C  s         
 
 Vector    2  Occ=1.000000D+00  E=-1.019180D+01
              MO Center= -4.2D-01, -6.1D-01, -2.1D-08, r^2= 1.4D+00
   Bfn.  Coefficient  Atom+Function         Bfn.  Coefficient  Atom+Function  
  ----- ------------  ---------------      ----- ------------  ---------------
    93      0.801513   3 C  s               185      0.540851   5 C  s         
    47      0.158328   2 C  s               231      0.099308   6 C  s         
   142     -0.096406   4 C  s               139      0.059041   4 C  s         
   325      0.050338   9 H  s                95      0.047966   3 C  s         
   302      0.042981   8 H  s               187      0.032482   5 C  s         
 
 Vector    3  Occ=1.000000D+00  E=-1.019178D+01
              MO Center=  4.9D-01, -5.3D-01, -1.5D-08, r^2= 1.4D+00
   Bfn.  Coefficient  Atom+Function         Bfn.  Coefficient  Atom+Function  
  ----- ------------  ---------------      ----- ------------  ---------------
   185      0.799096   5 C  s                93     -0.537064   3 C  s         
   231      0.175420   6 C  s                47     -0.125684   2 C  s         
    50      0.062736   2 C  s               234     -0.056373   6 C  s         
   348      0.056144  10 H  s                51      0.054046   2 C  s         
   279     -0.051963   7 H  s               235     -0.051030   6 C  s         
 
 Vector    4  Occ=1.000000D+00  E=-1.019030D+01
              MO Center= -1.1D+00,  6.5D-01, -1.8D-08, r^2= 5.0D-01
   Bfn.  Coefficient  Atom+Function         Bfn.  Coefficient  Atom+Function  
  ----- ------------  ---------------      ----- ------------  ---------------
    47      0.930436   2 C  s               231      0.261578   6 C  s         
    93     -0.188128   3 C  s               279      0.058048   7 H  s         
    49      0.054405   2 C  s               185     -0.041259   5 C  s         
   143      0.038555   4 C  s                 4     -0.035591   1 C  s         
   142     -0.032819   4 C  s               189      0.029997   5 C  s         
 
 Vector    5  Occ=1.000000D+00  E=-1.019029D+01
              MO Center=  1.0D+00,  7.7D-01,  4.0D-08, r^2= 5.1D-01
   Bfn.  Coefficient  Atom+Function         Bfn.  Coefficient  Atom+Function  
  ----- ------------  ---------------      ----- ------------  ---------------
   231      0.928695   6 C  s                47     -0.254865   2 C  s         
   185     -0.194064   5 C  s                93      0.064709   3 C  s         
   371      0.055463  11 H  s               233      0.053834   6 C  s         
    97      0.046930   3 C  s                96      0.041994   3 C  s         
   189     -0.041152   5 C  s               188     -0.038689   5 C  s         
 
 Vector    6  Occ=1.000000D+00  E=-1.018443D+01
              MO Center=  8.3D-02, -1.3D+00,  3.9D-08, r^2= 3.5D-02
   Bfn.  Coefficient  Atom+Function         Bfn.  Coefficient  Atom+Function  
  ----- ------------  ---------------      ----- ------------  ---------------
   139      0.984227   4 C  s               141      0.057780   4 C  s         
    96     -0.045927   3 C  s               188     -0.045901   5 C  s         
   325      0.045892   9 H  s               143     -0.043725   4 C  s         
     4      0.040319   1 C  s                93     -0.040316   3 C  s         
   185     -0.040346   5 C  s               151      0.036144   4 C  py        
 
 Vector    7  Occ=1.000000D+00  E=-8.724677D-01
              MO Center= -6.3D-03,  1.0D-01,  5.1D-09, r^2= 2.0D+00
   Bfn.  Coefficient  Atom+Function         Bfn.  Coefficient  Atom+Function  
  ----- ------------  ---------------      ----- ------------  ---------------
     2      0.213996   1 C  s                48      0.202757   2 C  s         
   232      0.202741   6 C  s                94      0.195627   3 C  s         
   186      0.195604   5 C  s               140      0.188031   4 C  s         
    50      0.089627   2 C  s               234      0.089570   6 C  s         
    96      0.087460   3 C  s               188      0.087457   5 C  s         
 
 Vector    8  Occ=1.000000D+00  E=-7.628804D-01
              MO Center= -6.2D-03,  1.0D-01,  1.7D-09, r^2= 2.8D+00
   Bfn.  Coefficient  Atom+Function         Bfn.  Coefficient  Atom+Function  
  ----- ------------  ---------------      ----- ------------  ---------------
    48      0.250806   2 C  s               232     -0.250920   6 C  s         
    94      0.243860   3 C  s               186     -0.243782   5 C  s         
    50      0.145811   2 C  s               234     -0.145889   6 C  s         
   279     -0.129263   7 H  s               371      0.129348  11 H  s         
   150     -0.115608   4 C  px               97      0.110330   3 C  s         
 
 Vector    9  Occ=1.000000D+00  E=-7.535815D-01
              MO Center=  9.2D-03, -1.5D-01, -2.7D-08, r^2= 2.6D+00
   Bfn.  Coefficient  Atom+Function         Bfn.  Coefficient  Atom+Function  
  ----- ------------  ---------------      ----- ------------  ---------------
   140     -0.300991   4 C  s                 2      0.278550   1 C  s         
    94     -0.148814   3 C  s               186     -0.148945   5 C  s         
    48      0.148037   2 C  s               142     -0.147174   4 C  s         
   232      0.147843   6 C  s                96     -0.105037   3 C  s         
   188     -0.105008   5 C  s                 4      0.102606   1 C  s         
 
 Vector   10  Occ=1.000000D+00  E=-6.185301D-01
              MO Center= -2.3D-03,  4.0D-02, -1.0D-08, r^2= 3.6D+00
   Bfn.  Coefficient  Atom+Function         Bfn.  Coefficient  Atom+Function  
  ----- ------------  ---------------      ----- ------------  ---------------
    94     -0.208540   3 C  s               186      0.208631   5 C  s         
    48      0.199512   2 C  s               232     -0.199486   6 C  s         
    50      0.183105   2 C  s               234     -0.183008   6 C  s         
    96     -0.147279   3 C  s               188      0.147306   5 C  s         
     6     -0.127340   1 C  px              144      0.116872   4 C  px        
 
 Vector   11  Occ=1.000000D+00  E=-6.038296D-01
              MO Center=  5.3D-03, -8.6D-02, -3.2D-08, r^2= 3.5D+00
   Bfn.  Coefficient  Atom+Function         Bfn.  Coefficient  Atom+Function  
  ----- ------------  ---------------      ----- ------------  ---------------
   142      0.259350   4 C  s                 2      0.238885   1 C  s         
   140      0.218700   4 C  s                 4      0.198973   1 C  s         
    94     -0.138242   3 C  s               186     -0.138126   5 C  s         
    50     -0.122633   2 C  s               234     -0.122735   6 C  s         
    96     -0.119414   3 C  s               188     -0.119343   5 C  s         
 
 Vector   12  Occ=1.000000D+00  E=-5.276568D-01
              MO Center=  9.4D-03, -1.5D-01, -1.1D-08, r^2= 4.1D+00
   Bfn.  Coefficient  Atom+Function         Bfn.  Coefficient  Atom+Function  
  ----- ------------  ---------------      ----- ------------  ---------------
   148      0.159378   4 C  py              145      0.138959   4 C  py        
   324     -0.127084   9 H  s                55      0.105232   2 C  px        
   240     -0.104887   6 C  py              323     -0.100565   9 H  s         
   237     -0.096210   6 C  py              193     -0.094368   5 C  px        
   278     -0.094384   7 H  s               370     -0.094369  11 H  s         
 
 Vector   13  Occ=1.000000D+00  E=-4.646389D-01
              MO Center= -7.3D-03,  1.1D-01, -5.2D-11, r^2= 2.7D+00
   Bfn.  Coefficient  Atom+Function         Bfn.  Coefficient  Atom+Function  
  ----- ------------  ---------------      ----- ------------  ---------------
     9      0.189015   1 C  px                6      0.175518   1 C  px        
   147      0.172236   4 C  px              144      0.159097   4 C  px        
   239     -0.137511   6 C  px              194     -0.133641   5 C  py        
    56     -0.130299   2 C  py               55     -0.122546   2 C  px        
   236     -0.122450   6 C  px              101     -0.120261   3 C  px        
 
 Vector   14  Occ=1.000000D+00  E=-4.631345D-01
              MO Center=  1.1D-02, -1.6D-01, -4.3D-08, r^2= 4.8D+00
   Bfn.  Coefficient  Atom+Function         Bfn.  Coefficient  Atom+Function  
  ----- ------------  ---------------      ----- ------------  ---------------
     2      0.176536   1 C  s               301      0.136719   8 H  s         
   347      0.136607  10 H  s               140     -0.129180   4 C  s         
   193      0.127620   5 C  px              196      0.120132   5 C  px        
   101     -0.119044   3 C  px               96      0.117910   3 C  s         
   188      0.118030   5 C  s               190      0.118421   5 C  px        
 
 Vector   15  Occ=1.000000D+00  E=-4.399410D-01
              MO Center= -1.3D-02,  2.1D-01, -2.5D-08, r^2= 4.0D+00
   Bfn.  Coefficient  Atom+Function         Bfn.  Coefficient  Atom+Function  
  ----- ------------  ---------------      ----- ------------  ---------------
   240      0.144963   6 C  py              102      0.140211   3 C  py        
   237      0.133809   6 C  py               99      0.131128   3 C  py        
   278     -0.130988   7 H  s               370      0.130972  11 H  s         
    56     -0.129868   2 C  py               55      0.128388   2 C  px        
   194     -0.128089   5 C  py               53     -0.120670   2 C  py        
 
 Vector   16  Occ=1.000000D+00  E=-3.989831D-01
              MO Center=  4.9D-02, -7.8D-01, -1.1D-08, r^2= 3.3D+00
   Bfn.  Coefficient  Atom+Function         Bfn.  Coefficient  Atom+Function  
  ----- ------------  ---------------      ----- ------------  ---------------
   148      0.233441   4 C  py              145      0.209153   4 C  py        
   324     -0.198675   9 H  s               151      0.172382   4 C  py        
   323     -0.153964   9 H  s                10      0.138731   1 C  py        
    13      0.120894   1 C  py              240      0.115301   6 C  py        
    56      0.109515   2 C  py                7      0.107996   1 C  py        
 
 Vector   17  Occ=1.000000D+00  E=-3.837033D-01
              MO Center= -7.7D-03,  1.2D-01, -5.8D-08, r^2= 2.7D+00
   Bfn.  Coefficient  Atom+Function         Bfn.  Coefficient  Atom+Function  
  ----- ------------  ---------------      ----- ------------  ---------------
    11      0.173449   1 C  pz               57      0.156447   2 C  pz        
   241      0.156437   6 C  pz              103      0.152237   3 C  pz        
   195      0.152222   5 C  pz              149      0.145811   4 C  pz        
     8      0.136815   1 C  pz               54      0.125816   2 C  pz        
   238      0.125807   6 C  pz              100      0.121738   3 C  pz        
 
 Vector   18  Occ=1.000000D+00  E=-3.660783D-01
              MO Center=  9.0D-03, -1.4D-01, -2.8D-08, r^2= 4.1D+00
   Bfn.  Coefficient  Atom+Function         Bfn.  Coefficient  Atom+Function  
  ----- ------------  ---------------      ----- ------------  ---------------
   147     -0.169280   4 C  px              101      0.165109   3 C  px        
   193      0.165008   5 C  px              144     -0.159796   4 C  px        
     9      0.149422   1 C  px               98      0.149406   3 C  px        
   190      0.149084   5 C  px                6      0.141583   1 C  px        
   196      0.135505   5 C  px              104      0.133395   3 C  px        
 
 Vector   19  Occ=1.000000D+00  E=-2.684190D-01
              MO Center=  5.4D-04, -1.5D-02,  7.7D-08, r^2= 3.0D+00
   Bfn.  Coefficient  Atom+Function         Bfn.  Coefficient  Atom+Function  
  ----- ------------  ---------------      ----- ------------  ---------------
    11      0.245349   1 C  pz              149     -0.238626   4 C  pz        
     8      0.192930   1 C  pz              146     -0.190749   4 C  pz        
    14      0.176596   1 C  pz              152     -0.171907   4 C  pz        
   103     -0.127457   3 C  pz              195     -0.125588   5 C  pz        
   241      0.115668   6 C  pz               57      0.113856   2 C  pz        
 
 Vector   20  Occ=1.000000D+00  E=-2.679688D-01
              MO Center= -3.4D-03,  6.1D-02,  2.8D-07, r^2= 3.1D+00
   Bfn.  Coefficient  Atom+Function         Bfn.  Coefficient  Atom+Function  
  ----- ------------  ---------------      ----- ------------  ---------------
   195     -0.208037   5 C  pz              103      0.206891   3 C  pz        
    57      0.204310   2 C  pz              241     -0.203292   6 C  pz        
   192     -0.165762   5 C  pz              100      0.164847   3 C  pz        
    54      0.163623   2 C  pz              238     -0.162812   6 C  pz        
    60      0.150797   2 C  pz              198     -0.150335   5 C  pz        
 
 Vector   21  Occ=1.000000D+00  E=-2.483831D-01
              MO Center= -8.2D-02,  1.3D+00,  8.5D-08, r^2= 2.3D+00
   Bfn.  Coefficient  Atom+Function         Bfn.  Coefficient  Atom+Function  
  ----- ------------  ---------------      ----- ------------  ---------------
    10      0.386033   1 C  py               13      0.337872   1 C  py        
     5      0.336160   1 C  s                 7      0.299351   1 C  py        
     4      0.278759   1 C  s                 2      0.138245   1 C  s         
   243     -0.136379   6 C  py               59     -0.134281   2 C  py        
   102      0.112475   3 C  py              194      0.112476   5 C  py        
 
 Vector   22  Occ=0.000000D+00  E=-2.590143D-02
              MO Center= -4.3D-03,  6.8D-02, -7.1D-07, r^2= 4.3D+00
   Bfn.  Coefficient  Atom+Function         Bfn.  Coefficient  Atom+Function  
  ----- ------------  ---------------      ----- ------------  ---------------
   109     -0.320553   3 C  pz              201      0.320669   5 C  pz        
    63      0.315191   2 C  pz              247     -0.315085   6 C  pz        
    60      0.227003   2 C  pz              244     -0.226938   6 C  pz        
   106     -0.223725   3 C  pz              198      0.223812   5 C  pz        
    57      0.218784   2 C  pz              241     -0.218718   6 C  pz        
 
 Vector   23  Occ=0.000000D+00  E=-1.873390D-02
              MO Center=  3.1D-03, -5.0D-02, -4.2D-06, r^2= 4.3D+00
   Bfn.  Coefficient  Atom+Function         Bfn.  Coefficient  Atom+Function  
  ----- ------------  ---------------      ----- ------------  ---------------
   155      0.438804   4 C  pz               17      0.372918   1 C  pz        
   152      0.274029   4 C  pz               11      0.258961   1 C  pz        
   149      0.250850   4 C  pz               14      0.240389   1 C  pz        
   109     -0.225712   3 C  pz              201     -0.225496   5 C  pz        
     8      0.200631   1 C  pz               63     -0.197692   2 C  pz        
 
 Vector   24  Occ=0.000000D+00  E=-1.011201D-02
              MO Center=  6.0D-02, -9.5D-01, -8.0D-07, r^2= 2.0D+01
   Bfn.  Coefficient  Atom+Function         Bfn.  Coefficient  Atom+Function  
  ----- ------------  ---------------      ----- ------------  ---------------
     5      1.450835   1 C  s               279     -0.975957   7 H  s         
   371     -0.975966  11 H  s               326     -0.740120   9 H  s         
   303     -0.730440   8 H  s               349     -0.730307  10 H  s         
   302     -0.649861   8 H  s               348     -0.649840  10 H  s         
   325     -0.588566   9 H  s                51      0.558438   2 C  s         
 
 Vector   25  Occ=0.000000D+00  E= 4.353424D-03
              MO Center=  1.7D-02, -2.6D-01, -4.6D-06, r^2= 2.7D+01
   Bfn.  Coefficient  Atom+Function         Bfn.  Coefficient  Atom+Function  
  ----- ------------  ---------------      ----- ------------  ---------------
    51      2.731754   2 C  s               235     -2.732744   6 C  s         
    97      2.669055   3 C  s               189     -2.669087   5 C  s         
   303      1.994327   8 H  s               349     -1.994402  10 H  s         
    15      1.864757   1 C  px              153      1.806190   4 C  px        
   280      1.538461   7 H  s               372     -1.538934  11 H  s         
 
 Vector   26  Occ=0.000000D+00  E= 8.747995D-03
              MO Center=  4.6D-03, -8.1D-02,  7.1D-05, r^2= 2.7D+01
   Bfn.  Coefficient  Atom+Function         Bfn.  Coefficient  Atom+Function  
  ----- ------------  ---------------      ----- ------------  ---------------
   143      6.252412   4 C  s                51     -4.016376   2 C  s         
   235     -4.015323   6 C  s               326      2.937298   9 H  s         
     5      2.600418   1 C  s               280     -2.389440   7 H  s         
   372     -2.388796  11 H  s               154      1.951420   4 C  py        
   246      1.932816   6 C  py               62      1.828153   2 C  py        
 
 Vector   27  Occ=0.000000D+00  E= 2.672074D-02
              MO Center= -1.5D-02,  2.4D-01,  3.2D-06, r^2= 3.1D+01
   Bfn.  Coefficient  Atom+Function         Bfn.  Coefficient  Atom+Function  
  ----- ------------  ---------------      ----- ------------  ---------------
   280      3.938321   7 H  s               372     -3.938841  11 H  s         
    51      3.664074   2 C  s               235     -3.665122   6 C  s         
   303     -3.608669   8 H  s               349      3.608882  10 H  s         
    61      2.227987   2 C  px               97     -2.193858   3 C  s         
   189      2.193743   5 C  s               199     -2.047187   5 C  px        
 
 Vector   28  Occ=0.000000D+00  E= 3.220109D-02
              MO Center=  3.9D-02, -6.2D-01, -1.0D-04, r^2= 2.9D+01
   Bfn.  Coefficient  Atom+Function         Bfn.  Coefficient  Atom+Function  
  ----- ------------  ---------------      ----- ------------  ---------------
     5      6.408264   1 C  s               326     -4.989266   9 H  s         
   303      3.721722   8 H  s               349      3.721250  10 H  s         
    97     -2.182236   3 C  s               154     -2.172784   4 C  py        
   189     -2.181411   5 C  s               199     -1.646332   5 C  px        
   245      1.637148   6 C  px               61     -1.584006   2 C  px        
 
 Vector   29  Occ=0.000000D+00  E= 4.329281D-02
              MO Center=  1.4D-02, -2.2D-01,  5.9D-06, r^2= 1.3D+01
   Bfn.  Coefficient  Atom+Function         Bfn.  Coefficient  Atom+Function  
  ----- ------------  ---------------      ----- ------------  ---------------
   155      0.597507   4 C  pz               63      0.576761   2 C  pz        
   247      0.576748   6 C  pz               17     -0.260895   1 C  pz        
    60     -0.154839   2 C  pz              244     -0.154865   6 C  pz        
   289     -0.123434   7 H  pz              381     -0.123430  11 H  pz        
   259      0.119230   6 C  d -1             77      0.109890   2 C  d  1      
 
 Vector   30  Occ=0.000000D+00  E= 5.494809D-02
              MO Center=  9.5D-03, -1.5D-01, -4.1D-05, r^2= 1.5D+01
   Bfn.  Coefficient  Atom+Function         Bfn.  Coefficient  Atom+Function  
  ----- ------------  ---------------      ----- ------------  ---------------
     5     10.717173   1 C  s               143      5.311805   4 C  s         
    51     -4.505214   2 C  s               235     -4.506021   6 C  s         
   303     -2.819143   8 H  s               349     -2.818211  10 H  s         
   326      2.087163   9 H  s               199      2.018062   5 C  px        
    97     -1.953324   3 C  s               189     -1.951999   5 C  s         
 
 Vector   31  Occ=0.000000D+00  E= 6.335716D-02
              MO Center= -4.1D-02,  6.5D-01, -1.2D-04, r^2= 2.8D+01
   Bfn.  Coefficient  Atom+Function         Bfn.  Coefficient  Atom+Function  
  ----- ------------  ---------------      ----- ------------  ---------------
     5     24.382571   1 C  s                51     -9.836897   2 C  s         
   235     -9.836385   6 C  s               143      7.603674   4 C  s         
    97     -6.515497   3 C  s               189     -6.515310   5 C  s         
   326      5.844298   9 H  s               154      4.760806   4 C  py        
   303     -4.677054   8 H  s               349     -4.677268  10 H  s         
 
 Vector   32  Occ=0.000000D+00  E= 6.573073D-02
              MO Center=  1.7D-03, -2.5D-02,  5.2D-04, r^2= 1.8D+01
   Bfn.  Coefficient  Atom+Function         Bfn.  Coefficient  Atom+Function  
  ----- ------------  ---------------      ----- ------------  ---------------
   109      0.976314   3 C  pz              201     -0.976103   5 C  pz        
    63      0.769838   2 C  pz              247     -0.770148   6 C  pz        
   169     -0.675949   4 C  d  1             31     -0.583531   1 C  d  1      
   106      0.491416   3 C  pz              198     -0.491523   5 C  pz        
    60      0.487747   2 C  pz              244     -0.487618   6 C  pz        
 
 Vector   33  Occ=0.000000D+00  E= 6.827467D-02
              MO Center= -1.2D-02,  1.9D-01, -3.0D-04, r^2= 1.8D+01
   Bfn.  Coefficient  Atom+Function         Bfn.  Coefficient  Atom+Function  
  ----- ------------  ---------------      ----- ------------  ---------------
    63      1.025635   2 C  pz              247      1.025298   6 C  pz        
   109     -0.812945   3 C  pz              201     -0.813056   5 C  pz        
   155     -0.750507   4 C  pz               14      0.633340   1 C  pz        
   152     -0.620976   4 C  pz               17      0.458058   1 C  pz        
   213     -0.448273   5 C  d -1            261     -0.409762   6 C  d  1      
 
 Vector   34  Occ=0.000000D+00  E= 7.642007D-02
              MO Center=  9.3D-03, -1.6D-01, -1.1D-04, r^2= 3.4D+01
   Bfn.  Coefficient  Atom+Function         Bfn.  Coefficient  Atom+Function  
  ----- ------------  ---------------      ----- ------------  ---------------
    51     13.852926   2 C  s               235    -13.867896   6 C  s         
    97     12.378755   3 C  s               189    -12.377604   5 C  s         
    15      7.660945   1 C  px              153      7.693394   4 C  px        
   107      4.764851   3 C  px              303      4.685036   8 H  s         
   349     -4.683601  10 H  s               199      4.464972   5 C  px        
 
 Vector   35  Occ=0.000000D+00  E= 7.794973D-02
              MO Center=  2.1D-01, -3.3D+00,  1.4D-04, r^2= 2.1D+01
   Bfn.  Coefficient  Atom+Function         Bfn.  Coefficient  Atom+Function  
  ----- ------------  ---------------      ----- ------------  ---------------
   143     18.245169   4 C  s                51    -13.447632   2 C  s         
   235    -13.429898   6 C  s               326      7.028066   9 H  s         
    62      5.638988   2 C  py              246      5.664649   6 C  py        
   200      5.379951   5 C  py              154      5.278004   4 C  py        
   108      5.026335   3 C  py              279      4.197225   7 H  s         
 
 Vector   36  Occ=0.000000D+00  E= 8.152747D-02
              MO Center= -8.8D-02,  1.4D+00,  9.8D-05, r^2= 2.8D+01
   Bfn.  Coefficient  Atom+Function         Bfn.  Coefficient  Atom+Function  
  ----- ------------  ---------------      ----- ------------  ---------------
   143     20.783338   4 C  s                51     -8.999436   2 C  s         
   235     -9.000596   6 C  s               246      5.265538   6 C  py        
    62      5.170208   2 C  py              325     -4.964445   9 H  s         
   280     -4.568002   7 H  s               372     -4.568682  11 H  s         
   200      4.503952   5 C  py              326      4.525049   9 H  s         
 
 Vector   37  Occ=0.000000D+00  E= 8.317939D-02
              MO Center=  4.6D-02, -7.3D-01, -1.1D-05, r^2= 2.2D+01
   Bfn.  Coefficient  Atom+Function         Bfn.  Coefficient  Atom+Function  
  ----- ------------  ---------------      ----- ------------  ---------------
    97      4.991671   3 C  s               189     -4.988028   5 C  s         
    51     -3.088814   2 C  s               235      3.090087   6 C  s         
   303      2.810327   8 H  s               349     -2.812021  10 H  s         
   108      2.776968   3 C  py              200     -2.660522   5 C  py        
   153      2.638145   4 C  px               96      2.083046   3 C  s         
 
 Vector   38  Occ=0.000000D+00  E= 9.541911D-02
              MO Center= -5.5D-02,  8.7D-01,  5.9D-06, r^2= 3.1D+01
   Bfn.  Coefficient  Atom+Function         Bfn.  Coefficient  Atom+Function  
  ----- ------------  ---------------      ----- ------------  ---------------
    51     17.753095   2 C  s               235    -17.759495   6 C  s         
   280      7.225629   7 H  s               372     -7.226400  11 H  s         
    97     -6.897396   3 C  s               189      6.898532   5 C  s         
   108     -6.473701   3 C  py              303     -6.211469   8 H  s         
   349      6.211194  10 H  s               200      5.931434   5 C  py        
 
 Vector   39  Occ=0.000000D+00  E= 1.017971D-01
              MO Center= -7.4D-03,  1.1D-01, -3.3D-04, r^2= 1.9D+01
   Bfn.  Coefficient  Atom+Function         Bfn.  Coefficient  Atom+Function  
  ----- ------------  ---------------      ----- ------------  ---------------
    51     13.693612   2 C  s               235    -13.692569   6 C  s         
    97     10.874825   3 C  s               189    -10.875165   5 C  s         
    15      9.981341   1 C  px              153      9.693304   4 C  px        
   246     -6.105490   6 C  py              108     -6.013309   3 C  py        
   200      5.982749   5 C  py               62      5.918252   2 C  py        
 
 Vector   40  Occ=0.000000D+00  E= 1.064859D-01
              MO Center= -8.0D-03,  1.3D-01, -5.9D-04, r^2= 2.1D+01
   Bfn.  Coefficient  Atom+Function         Bfn.  Coefficient  Atom+Function  
  ----- ------------  ---------------      ----- ------------  ---------------
   143     18.281887   4 C  s                51     -9.944147   2 C  s         
   235     -9.944110   6 C  s                 5     -9.477340   1 C  s         
   107     -8.761482   3 C  px              199      7.981031   5 C  px        
   245     -7.052498   6 C  px              200      6.728914   5 C  py        
    61      6.496409   2 C  px              108      5.673920   3 C  py        
 
 Vector   41  Occ=0.000000D+00  E= 1.082218D-01
              MO Center= -9.8D-03,  1.6D-01, -9.3D-05, r^2= 2.2D+01
   Bfn.  Coefficient  Atom+Function         Bfn.  Coefficient  Atom+Function  
  ----- ------------  ---------------      ----- ------------  ---------------
    63      3.392866   2 C  pz              247     -3.392464   6 C  pz        
   109     -3.362651   3 C  pz              201      3.365719   5 C  pz        
    60      0.696707   2 C  pz              244     -0.696618   6 C  pz        
   106     -0.636472   3 C  pz              198      0.637069   5 C  pz        
    77     -0.379802   2 C  d  1            215      0.360658   5 C  d  1      
 
 Vector   42  Occ=0.000000D+00  E= 1.089476D-01
              MO Center=  2.9D-02, -4.7D-01,  2.1D-03, r^2= 2.1D+01
   Bfn.  Coefficient  Atom+Function         Bfn.  Coefficient  Atom+Function  
  ----- ------------  ---------------      ----- ------------  ---------------
   155      5.317610   4 C  pz              109     -3.441188   3 C  pz        
   201     -3.438069   5 C  pz               17      2.513359   1 C  pz        
   152      0.983497   4 C  pz              106     -0.603262   3 C  pz        
   198     -0.602667   5 C  pz              167      0.570349   4 C  d -1      
    14      0.504852   1 C  pz              247     -0.478838   6 C  pz        
 
 Vector   43  Occ=0.000000D+00  E= 1.094972D-01
              MO Center=  2.8D-02, -4.5D-01, -1.0D-03, r^2= 2.7D+01
   Bfn.  Coefficient  Atom+Function         Bfn.  Coefficient  Atom+Function  
  ----- ------------  ---------------      ----- ------------  ---------------
   326      7.651993   9 H  s               154      7.046798   4 C  py        
   303     -6.472351   8 H  s               349     -6.471120  10 H  s         
   143     -5.635955   4 C  s               108     -4.430212   3 C  py        
   200     -4.183738   5 C  py               62     -4.161594   2 C  py        
   246     -4.143997   6 C  py                4      3.920959   1 C  s         
 
 Vector   44  Occ=0.000000D+00  E= 1.178112D-01
              MO Center= -4.1D-02,  6.5D-01, -4.2D-04, r^2= 1.4D+01
   Bfn.  Coefficient  Atom+Function         Bfn.  Coefficient  Atom+Function  
  ----- ------------  ---------------      ----- ------------  ---------------
    17      6.876858   1 C  pz               63     -6.022697   2 C  pz        
   247     -6.022623   6 C  pz              109      5.054712   3 C  pz        
   201      5.054581   5 C  pz              155     -4.824271   4 C  pz        
    14      1.236452   1 C  pz               60     -1.020508   2 C  pz        
   244     -1.020480   6 C  pz              106      0.892580   3 C  pz        
 
 Vector   45  Occ=0.000000D+00  E= 1.264025D-01
              MO Center= -1.9D-02,  2.9D-01, -3.1D-05, r^2= 2.5D+01
   Bfn.  Coefficient  Atom+Function         Bfn.  Coefficient  Atom+Function  
  ----- ------------  ---------------      ----- ------------  ---------------
    51      7.623034   2 C  s               235     -7.624473   6 C  s         
   107      7.198135   3 C  px              199      7.120995   5 C  px        
   245     -7.027285   6 C  px               61     -6.918573   2 C  px        
    15      6.458384   1 C  px               97     -6.213449   3 C  s         
   189      6.212541   5 C  s               153     -5.826818   4 C  px        
 
 Vector   46  Occ=0.000000D+00  E= 1.274475D-01
              MO Center= -1.2D-02,  1.9D-01,  1.3D-04, r^2= 2.6D+01
   Bfn.  Coefficient  Atom+Function         Bfn.  Coefficient  Atom+Function  
  ----- ------------  ---------------      ----- ------------  ---------------
   154     -8.031051   4 C  py               16      7.428295   1 C  py        
   108      6.886919   3 C  py               62     -6.577514   2 C  py        
   200      6.568897   5 C  py              246     -6.385153   6 C  py        
   326     -4.046772   9 H  s                 5      3.521481   1 C  s         
   303      3.166996   8 H  s               349      3.167299  10 H  s         
 
 Vector   47  Occ=0.000000D+00  E= 1.609503D-01
              MO Center= -8.6D-03,  1.4D-01,  8.7D-05, r^2= 1.7D+01
   Bfn.  Coefficient  Atom+Function         Bfn.  Coefficient  Atom+Function  
  ----- ------------  ---------------      ----- ------------  ---------------
    17      8.192675   1 C  pz               63     -8.006354   2 C  pz        
   247     -8.006346   6 C  pz              155     -7.853801   4 C  pz        
   109      7.771989   3 C  pz              201      7.771863   5 C  pz        
    60     -1.192061   2 C  pz              106      1.192906   3 C  pz        
   198      1.192929   5 C  pz              244     -1.192052   6 C  pz        
 
 Vector   48  Occ=0.000000D+00  E= 1.659705D-01
              MO Center= -8.9D-02,  1.4D+00,  3.2D-04, r^2= 2.2D+01
   Bfn.  Coefficient  Atom+Function         Bfn.  Coefficient  Atom+Function  
  ----- ------------  ---------------      ----- ------------  ---------------
     5     59.128573   1 C  s                51    -25.942214   2 C  s         
   143     25.970801   4 C  s               235    -25.940082   6 C  s         
    97    -14.389125   3 C  s               189    -14.382334   5 C  s         
   154      7.409888   4 C  py              245      6.810393   6 C  px        
    61     -6.396289   2 C  px              326      6.145345   9 H  s         
 
 Vector   49  Occ=0.000000D+00  E= 1.754283D-01
              MO Center=  2.5D-02, -3.9D-01, -1.7D-04, r^2= 1.1D+01
   Bfn.  Coefficient  Atom+Function         Bfn.  Coefficient  Atom+Function  
  ----- ------------  ---------------      ----- ------------  ---------------
   335      1.104789   9 H  pz              312      1.078986   8 H  pz        
   358      1.078932  10 H  pz              289      0.973290   7 H  pz        
   381      0.973238  11 H  pz               17      0.963098   1 C  pz        
    63     -0.887191   2 C  pz              247     -0.887286   6 C  pz        
   106     -0.841630   3 C  pz              198     -0.841696   5 C  pz        
 
 Vector   50  Occ=0.000000D+00  E= 1.864236D-01
              MO Center=  3.4D-02, -5.4D-01,  9.6D-05, r^2= 1.5D+01
   Bfn.  Coefficient  Atom+Function         Bfn.  Coefficient  Atom+Function  
  ----- ------------  ---------------      ----- ------------  ---------------
     5     15.895399   1 C  s                97     -7.402574   3 C  s         
   189     -7.404043   5 C  s               325      4.492012   9 H  s         
    51     -4.461088   2 C  s               235     -4.446572   6 C  s         
    62     -4.102943   2 C  py              154      3.977285   4 C  py        
   246     -3.875395   6 C  py              143     -3.298889   4 C  s         
 
 Vector   51  Occ=0.000000D+00  E= 1.980507D-01
              MO Center= -3.0D-02,  4.7D-01,  3.5D-04, r^2= 2.3D+01
   Bfn.  Coefficient  Atom+Function         Bfn.  Coefficient  Atom+Function  
  ----- ------------  ---------------      ----- ------------  ---------------
    51     44.647486   2 C  s               235    -44.620333   6 C  s         
    97     25.104160   3 C  s               189    -25.115590   5 C  s         
    15     18.486048   1 C  px              153     17.051313   4 C  px        
   302    -14.013374   8 H  s               348     14.019166  10 H  s         
   200      9.232692   5 C  py              108     -8.527404   3 C  py        
 
 Vector   52  Occ=0.000000D+00  E= 1.984262D-01
              MO Center=  4.7D-02, -7.4D-01, -5.1D-04, r^2= 2.3D+01
   Bfn.  Coefficient  Atom+Function         Bfn.  Coefficient  Atom+Function  
  ----- ------------  ---------------      ----- ------------  ---------------
   143     61.307318   4 C  s                51    -34.521861   2 C  s         
   235    -34.570807   6 C  s               325    -16.833037   9 H  s         
    62     14.692493   2 C  py              246     14.423880   6 C  py        
   200     13.766274   5 C  py              108     12.548896   3 C  py        
     5    -11.533701   1 C  s               279     11.188962   7 H  s         
 
 Vector   53  Occ=0.000000D+00  E= 2.155376D-01
              MO Center=  8.7D-02, -1.4D+00, -2.8D-05, r^2= 1.5D+01
   Bfn.  Coefficient  Atom+Function         Bfn.  Coefficient  Atom+Function  
  ----- ------------  ---------------      ----- ------------  ---------------
    97     13.884340   3 C  s               189    -13.870000   5 C  s         
    96      6.566936   3 C  s               188     -6.559794   5 C  s         
   153      6.379248   4 C  px              279     -5.130577   7 H  s         
   371      5.116551  11 H  s               303      4.702628   8 H  s         
   349     -4.705508  10 H  s               246     -4.522711   6 C  py        
 
 Vector   54  Occ=0.000000D+00  E= 2.181458D-01
              MO Center=  1.9D-02, -2.8D-01, -1.8D-04, r^2= 1.5D+01
   Bfn.  Coefficient  Atom+Function         Bfn.  Coefficient  Atom+Function  
  ----- ------------  ---------------      ----- ------------  ---------------
   143     25.898570   4 C  s                51    -17.808089   2 C  s         
   235    -17.880165   6 C  s                 5     15.965407   1 C  s         
    16     -6.463618   1 C  py              325     -6.078391   9 H  s         
    62      4.885684   2 C  py              246      4.743773   6 C  py        
   279      3.731383   7 H  s               371      3.748018  11 H  s         
 
 Vector   55  Occ=0.000000D+00  E= 2.192847D-01
              MO Center=  6.9D-03, -1.0D-01,  1.1D-03, r^2= 1.5D+01
   Bfn.  Coefficient  Atom+Function         Bfn.  Coefficient  Atom+Function  
  ----- ------------  ---------------      ----- ------------  ---------------
    51     20.031065   2 C  s               235    -19.968537   6 C  s         
   108     -8.546585   3 C  py              200      8.166337   5 C  py        
    15      7.561685   1 C  px              302     -7.027037   8 H  s         
   348      7.027901  10 H  s               153      6.277923   4 C  px        
   246     -3.976718   6 C  py               62      3.826627   2 C  py        
 
 Vector   56  Occ=0.000000D+00  E= 2.300453D-01
              MO Center= -1.9D-02,  3.0D-01,  1.7D-03, r^2= 1.8D+01
   Bfn.  Coefficient  Atom+Function         Bfn.  Coefficient  Atom+Function  
  ----- ------------  ---------------      ----- ------------  ---------------
   199      4.915176   5 C  px              107      4.652388   3 C  px        
   153     -3.423844   4 C  px               50     -3.299962   2 C  s         
   234      3.301914   6 C  s               303      3.174758   8 H  s         
   349     -3.177205  10 H  s                15     -2.489548   1 C  px        
   108      2.339678   3 C  py               59      1.939153   2 C  py        
 
 Vector   57  Occ=0.000000D+00  E= 2.311468D-01
              MO Center=  7.9D-05,  1.6D-03, -3.7D-03, r^2= 1.6D+01
   Bfn.  Coefficient  Atom+Function         Bfn.  Coefficient  Atom+Function  
  ----- ------------  ---------------      ----- ------------  ---------------
   106      2.139642   3 C  pz              198     -2.139573   5 C  pz        
    60      2.045184   2 C  pz              244     -2.045017   6 C  pz        
   312     -1.818231   8 H  pz              358      1.818144  10 H  pz        
   289     -1.720495   7 H  pz              381      1.720784  11 H  pz        
   169     -1.375744   4 C  d  1             31     -1.246688   1 C  d  1      
 
 Vector   58  Occ=0.000000D+00  E= 2.352812D-01
              MO Center= -1.2D-02,  2.1D-01,  4.8D-04, r^2= 1.6D+01
   Bfn.  Coefficient  Atom+Function         Bfn.  Coefficient  Atom+Function  
  ----- ------------  ---------------      ----- ------------  ---------------
   143     15.122728   4 C  s               235    -10.697572   6 C  s         
    51    -10.522908   2 C  s               107     -8.200521   3 C  px        
   199      7.758835   5 C  px               61      5.400769   2 C  px        
   245     -5.284293   6 C  px              303     -4.427676   8 H  s         
   349     -4.404794  10 H  s                 5      4.170810   1 C  s         
 
 Vector   59  Occ=0.000000D+00  E= 2.364377D-01
              MO Center= -6.2D-03,  7.4D-02,  1.0D-03, r^2= 1.7D+01
   Bfn.  Coefficient  Atom+Function         Bfn.  Coefficient  Atom+Function  
  ----- ------------  ---------------      ----- ------------  ---------------
    97    -33.222220   3 C  s               189     33.219434   5 C  s         
    51     31.508124   2 C  s               235    -31.447070   6 C  s         
    96    -14.364160   3 C  s               188     14.377950   5 C  s         
   279     10.764549   7 H  s               371    -10.777081  11 H  s         
   302    -10.611637   8 H  s               348     10.612502  10 H  s         
 
 Vector   60  Occ=0.000000D+00  E= 2.434897D-01
              MO Center=  2.6D-03, -4.5D-02, -4.6D-04, r^2= 1.5D+01
   Bfn.  Coefficient  Atom+Function         Bfn.  Coefficient  Atom+Function  
  ----- ------------  ---------------      ----- ------------  ---------------
   152      3.415589   4 C  pz               14     -3.031651   1 C  pz        
   289      2.170800   7 H  pz              381      2.170570  11 H  pz        
   335     -2.124267   9 H  pz              261      2.005016   6 C  d  1      
    77     -1.989693   2 C  d  1             63     -1.598586   2 C  pz        
   247     -1.598119   6 C  pz              155      1.371916   4 C  pz        
 
 Vector   61  Occ=0.000000D+00  E= 2.596817D-01
              MO Center=  3.9D-02, -6.3D-01,  6.5D-05, r^2= 1.7D+01
   Bfn.  Coefficient  Atom+Function         Bfn.  Coefficient  Atom+Function  
  ----- ------------  ---------------      ----- ------------  ---------------
     5      9.094652   1 C  s               108     -6.727669   3 C  py        
   200     -6.118541   5 C  py              303     -5.282097   8 H  s         
   349     -5.280147  10 H  s               199      5.211606   5 C  px        
   197     -4.836554   5 C  py              105     -4.746917   3 C  py        
   154      4.716330   4 C  py              107     -4.404500   3 C  px        
 
 Vector   62  Occ=0.000000D+00  E= 2.619571D-01
              MO Center=  6.6D-02, -1.0D+00, -5.6D-05, r^2= 1.7D+01
   Bfn.  Coefficient  Atom+Function         Bfn.  Coefficient  Atom+Function  
  ----- ------------  ---------------      ----- ------------  ---------------
     5     18.686556   1 C  s               154     15.253029   4 C  py        
   143     15.155755   4 C  s                51    -14.468768   2 C  s         
   235    -14.485330   6 C  s               326      9.090541   9 H  s         
     4      6.022676   1 C  s                97     -4.602816   3 C  s         
   108     -4.621142   3 C  py              189     -4.594671   5 C  s         
 
 Vector   63  Occ=0.000000D+00  E= 2.676394D-01
              MO Center= -2.6D-02,  4.3D-01,  5.5D-05, r^2= 2.0D+01
   Bfn.  Coefficient  Atom+Function         Bfn.  Coefficient  Atom+Function  
  ----- ------------  ---------------      ----- ------------  ---------------
    51     20.247087   2 C  s               235    -20.235981   6 C  s         
    97    -11.926525   3 C  s               189     11.932138   5 C  s         
    61     11.034774   2 C  px              245     10.285189   6 C  px        
    96     -8.764123   3 C  s               188      8.766217   5 C  s         
   279      8.731545   7 H  s               371     -8.732296  11 H  s         
 
 Vector   64  Occ=0.000000D+00  E= 2.748618D-01
              MO Center= -1.2D-03,  2.1D-02,  6.7D-05, r^2= 1.4D+01
   Bfn.  Coefficient  Atom+Function         Bfn.  Coefficient  Atom+Function  
  ----- ------------  ---------------      ----- ------------  ---------------
   143      9.004666   4 C  s                 5      8.847896   1 C  s         
   154      5.806886   4 C  py              279     -5.663757   7 H  s         
   371     -5.664946  11 H  s               302     -4.644438   8 H  s         
   348     -4.645925  10 H  s               325     -4.360521   9 H  s         
    16     -4.053528   1 C  py              246      3.267826   6 C  py        
 
 Vector   65  Occ=0.000000D+00  E= 2.829536D-01
              MO Center= -1.2D-02,  1.9D-01, -2.0D-05, r^2= 1.6D+01
   Bfn.  Coefficient  Atom+Function         Bfn.  Coefficient  Atom+Function  
  ----- ------------  ---------------      ----- ------------  ---------------
    12      9.530557   1 C  px               97      8.933163   3 C  s         
   189     -8.933575   5 C  s               302      8.090087   8 H  s         
   348     -8.089353  10 H  s                51     -8.029749   2 C  s         
   235      8.032651   6 C  s               199      7.630047   5 C  px        
   107      7.162982   3 C  px              150      6.165028   4 C  px        
 
 Vector   66  Occ=0.000000D+00  E= 2.954625D-01
              MO Center= -3.1D-03,  5.2D-02, -2.1D-05, r^2= 1.6D+01
   Bfn.  Coefficient  Atom+Function         Bfn.  Coefficient  Atom+Function  
  ----- ------------  ---------------      ----- ------------  ---------------
    63      3.200507   2 C  pz              109     -3.188038   3 C  pz        
   201      3.188207   5 C  pz              247     -3.200457   6 C  pz        
   289     -2.283042   7 H  pz              381      2.283193  11 H  pz        
    60      2.258102   2 C  pz              244     -2.258223   6 C  pz        
   312      2.264482   8 H  pz              358     -2.264547  10 H  pz        
 
 Vector   67  Occ=0.000000D+00  E= 2.961989D-01
              MO Center= -6.0D-02,  9.5D-01,  4.1D-04, r^2= 1.4D+01
   Bfn.  Coefficient  Atom+Function         Bfn.  Coefficient  Atom+Function  
  ----- ------------  ---------------      ----- ------------  ---------------
     4     10.447691   1 C  s                59     -5.729168   2 C  py        
   243     -5.618546   6 C  py              105     -5.513872   3 C  py        
     5      5.469506   1 C  s               197     -5.124126   5 C  py        
    16      4.269860   1 C  py              279     -4.181651   7 H  s         
   371     -4.180395  11 H  s                62     -3.909528   2 C  py        
 
 Vector   68  Occ=0.000000D+00  E= 3.079864D-01
              MO Center=  1.6D-02, -2.7D-01, -4.6D-04, r^2= 1.5D+01
   Bfn.  Coefficient  Atom+Function         Bfn.  Coefficient  Atom+Function  
  ----- ------------  ---------------      ----- ------------  ---------------
   155      5.174661   4 C  pz               14      4.364016   1 C  pz        
   109     -3.737900   3 C  pz              201     -3.737473   5 C  pz        
   335     -2.708535   9 H  pz               60     -2.047713   2 C  pz        
   244     -2.047562   6 C  pz               17      1.844331   1 C  pz        
   152      1.845225   4 C  pz               29     -1.719673   1 C  d -1      
 
 Vector   69  Occ=0.000000D+00  E= 3.150858D-01
              MO Center=  5.4D-03, -8.0D-02,  1.9D-05, r^2= 9.1D+00
   Bfn.  Coefficient  Atom+Function         Bfn.  Coefficient  Atom+Function  
  ----- ------------  ---------------      ----- ------------  ---------------
   261      1.245742   6 C  d  1             77      1.126444   2 C  d  1      
   169     -1.107915   4 C  d  1             75     -1.020052   2 C  d -1      
   259      0.870461   6 C  d -1            289     -0.711979   7 H  pz        
   381      0.711810  11 H  pz               31      0.618425   1 C  d  1      
    60     -0.330808   2 C  pz              244      0.331704   6 C  pz        
 
 Vector   70  Occ=0.000000D+00  E= 3.286061D-01
              MO Center=  3.9D-02, -6.2D-01,  7.9D-05, r^2= 1.5D+01
   Bfn.  Coefficient  Atom+Function         Bfn.  Coefficient  Atom+Function  
  ----- ------------  ---------------      ----- ------------  ---------------
   142     12.344864   4 C  s                96      8.616275   3 C  s         
   188      8.612823   5 C  s               151     -6.768853   4 C  py        
   325     -5.817309   9 H  s                 4     -5.090217   1 C  s         
   334     -5.009448   9 H  py                5      4.586468   1 C  s         
   302     -4.403647   8 H  s               348     -4.405858  10 H  s         
 
 Vector   71  Occ=0.000000D+00  E= 3.347570D-01
              MO Center= -1.5D-03,  2.4D-02,  1.9D-04, r^2= 7.7D+00
   Bfn.  Coefficient  Atom+Function         Bfn.  Coefficient  Atom+Function  
  ----- ------------  ---------------      ----- ------------  ---------------
   289      2.025870   7 H  pz              381      2.026113  11 H  pz        
   335      1.848335   9 H  pz               14     -1.778466   1 C  pz        
   155     -1.701752   4 C  pz               63     -1.546627   2 C  pz        
   247     -1.546649   6 C  pz               77     -1.513087   2 C  d  1      
   261      1.414356   6 C  d  1            106     -1.282978   3 C  pz        
 
 Vector   72  Occ=0.000000D+00  E= 3.431891D-01
              MO Center=  2.4D-02, -3.8D-01, -4.3D-03, r^2= 1.2D+01
   Bfn.  Coefficient  Atom+Function         Bfn.  Coefficient  Atom+Function  
  ----- ------------  ---------------      ----- ------------  ---------------
   169      3.282757   4 C  d  1             31      2.709243   1 C  d  1      
   312     -2.475996   8 H  pz              358      2.476503  10 H  pz        
   123      2.181613   3 C  d  1            215      2.143137   5 C  d  1      
   106     -1.792217   3 C  pz              198      1.793908   5 C  pz        
   289     -1.435875   7 H  pz              381      1.436796  11 H  pz        
 
 Vector   73  Occ=0.000000D+00  E= 3.448541D-01
              MO Center= -3.6D-02,  5.7D-01, -2.0D-03, r^2= 1.2D+01
   Bfn.  Coefficient  Atom+Function         Bfn.  Coefficient  Atom+Function  
  ----- ------------  ---------------      ----- ------------  ---------------
   143     23.786508   4 C  s               325    -13.068836   9 H  s         
    51    -11.830967   2 C  s               235    -11.835074   6 C  s         
   279     11.868824   7 H  s               371     11.867503  11 H  s         
     5     -7.426376   1 C  s               197     -6.895991   5 C  py        
   105     -6.772628   3 C  py              243     -6.023301   6 C  py        
 
 Vector   74  Occ=0.000000D+00  E= 3.478235D-01
              MO Center=  1.0D-02, -1.6D-01,  3.9D-03, r^2= 1.2D+01
   Bfn.  Coefficient  Atom+Function         Bfn.  Coefficient  Atom+Function  
  ----- ------------  ---------------      ----- ------------  ---------------
    51     21.244324   2 C  s               235    -21.230236   6 C  s         
   302    -11.990078   8 H  s               348     11.990450  10 H  s         
    97     10.936353   3 C  s               189    -10.933346   5 C  s         
   279     -9.734301   7 H  s               371      9.736161  11 H  s         
    12     -8.093059   1 C  px              150     -7.026968   4 C  px        
 
 Vector   75  Occ=0.000000D+00  E= 3.482789D-01
              MO Center=  3.3D-02, -5.2D-01,  3.0D-03, r^2= 1.3D+01
   Bfn.  Coefficient  Atom+Function         Bfn.  Coefficient  Atom+Function  
  ----- ------------  ---------------      ----- ------------  ---------------
   155     -3.982382   4 C  pz               17      3.796856   1 C  pz        
   109      3.574727   3 C  pz              201      3.574579   5 C  pz        
    63     -3.467733   2 C  pz              247     -3.467859   6 C  pz        
   152     -3.027565   4 C  pz              213     -2.294433   5 C  d -1      
   289      2.263822   7 H  pz              381      2.261893  11 H  pz        
 
 Vector   76  Occ=0.000000D+00  E= 3.527710D-01
              MO Center=  3.3D-02, -5.3D-01, -2.7D-04, r^2= 1.4D+01
   Bfn.  Coefficient  Atom+Function         Bfn.  Coefficient  Atom+Function  
  ----- ------------  ---------------      ----- ------------  ---------------
    17      6.390709   1 C  pz               63     -5.861237   2 C  pz        
   247     -5.861555   6 C  pz              109      5.129851   3 C  pz        
   201      5.130200   5 C  pz              155     -4.854750   4 C  pz        
   335      3.960784   9 H  pz               14      3.798594   1 C  pz        
   167      3.077602   4 C  d -1             60     -2.691635   2 C  pz        
 
 Vector   77  Occ=0.000000D+00  E= 3.544022D-01
              MO Center= -2.0D-02,  3.2D-01, -6.3D-04, r^2= 1.5D+01
   Bfn.  Coefficient  Atom+Function         Bfn.  Coefficient  Atom+Function  
  ----- ------------  ---------------      ----- ------------  ---------------
     5     31.521096   1 C  s               143     15.880328   4 C  s         
    51    -15.698432   2 C  s               235    -15.723907   6 C  s         
   151    -11.073162   4 C  py              196     -7.517331   5 C  px        
    50      7.426010   2 C  s               234      7.429508   6 C  s         
    13      7.328838   1 C  py              104      7.073799   3 C  px        
 
 Vector   78  Occ=0.000000D+00  E= 3.598049D-01
              MO Center= -4.7D-02,  7.5D-01,  2.3D-04, r^2= 1.3D+01
   Bfn.  Coefficient  Atom+Function         Bfn.  Coefficient  Atom+Function  
  ----- ------------  ---------------      ----- ------------  ---------------
   289      3.401086   7 H  pz              381     -3.401308  11 H  pz        
    60      3.156003   2 C  pz              244     -3.153559   6 C  pz        
    77     -3.089482   2 C  d  1            121     -3.069281   3 C  d -1      
   259      3.008150   6 C  d -1            213      2.766054   5 C  d -1      
   312     -2.761304   8 H  pz              358      2.761932  10 H  pz        
 
 Vector   79  Occ=0.000000D+00  E= 3.684624D-01
              MO Center=  3.5D-02, -5.8D-01, -1.8D-04, r^2= 1.3D+01
   Bfn.  Coefficient  Atom+Function         Bfn.  Coefficient  Atom+Function  
  ----- ------------  ---------------      ----- ------------  ---------------
    96     10.794266   3 C  s               188     10.785676   5 C  s         
   104     -8.617805   3 C  px              196      8.599701   5 C  px        
   142     -7.431336   4 C  s                 5      6.679316   1 C  s         
   212      5.401053   5 C  d -2            258      5.309080   6 C  d -2      
   120     -5.263345   3 C  d -2            242     -5.114557   6 C  px        
 
 Vector   80  Occ=0.000000D+00  E= 3.722766D-01
              MO Center=  2.1D-02, -3.0D-01, -2.0D-04, r^2= 1.3D+01
   Bfn.  Coefficient  Atom+Function         Bfn.  Coefficient  Atom+Function  
  ----- ------------  ---------------      ----- ------------  ---------------
    97      9.774824   3 C  s               189     -9.769356   5 C  s         
    50      9.033607   2 C  s               234     -9.028442   6 C  s         
   279     -5.371028   7 H  s               371      5.385424  11 H  s         
   357      5.251741  10 H  py              311     -5.116761   8 H  py        
   212     -4.896584   5 C  d -2             51     -4.845982   2 C  s         
 
 Vector   81  Occ=0.000000D+00  E= 3.819619D-01
              MO Center=  3.6D-02, -5.8D-01, -1.0D-05, r^2= 1.6D+01
   Bfn.  Coefficient  Atom+Function         Bfn.  Coefficient  Atom+Function  
  ----- ------------  ---------------      ----- ------------  ---------------
   166      9.062397   4 C  d -2            333      7.084255   9 H  px        
   150     -6.698759   4 C  px              216     -6.572583   5 C  d  2      
   124      6.102115   3 C  d  2            279      5.901137   7 H  s         
   371     -5.910409  11 H  s               310      5.110703   8 H  px        
   356      5.054161  10 H  px               96     -4.781445   3 C  s         
 
 Vector   82  Occ=0.000000D+00  E= 3.930041D-01
              MO Center= -2.9D-02,  4.5D-01,  1.9D-04, r^2= 1.5D+01
   Bfn.  Coefficient  Atom+Function         Bfn.  Coefficient  Atom+Function  
  ----- ------------  ---------------      ----- ------------  ---------------
    12     12.025753   1 C  px               51    -10.879606   2 C  s         
   235     10.893707   6 C  s                78     -9.052678   2 C  d  2      
   262      8.741971   6 C  d  2             15     -6.752642   1 C  px        
   216      6.582482   5 C  d  2            153     -5.814875   4 C  px        
   379     -5.801204  11 H  px              124     -5.762196   3 C  d  2      
 
 Vector   83  Occ=0.000000D+00  E= 3.962183D-01
              MO Center= -5.2D-02,  8.3D-01,  2.1D-04, r^2= 1.2D+01
   Bfn.  Coefficient  Atom+Function         Bfn.  Coefficient  Atom+Function  
  ----- ------------  ---------------      ----- ------------  ---------------
   152     -7.524345   4 C  pz              106      7.326734   3 C  pz        
   198      7.327460   5 C  pz               60     -6.471306   2 C  pz        
   244     -6.471560   6 C  pz              167     -6.324865   4 C  d -1      
   215      5.116278   5 C  d  1            123     -4.709979   3 C  d  1      
    14      4.560596   1 C  pz              259      4.026741   6 C  d -1      
 
 Vector   84  Occ=0.000000D+00  E= 4.018681D-01
              MO Center= -3.5D-02,  5.4D-01, -7.0D-04, r^2= 1.5D+01
   Bfn.  Coefficient  Atom+Function         Bfn.  Coefficient  Atom+Function  
  ----- ------------  ---------------      ----- ------------  ---------------
     5     52.543781   1 C  s                51    -19.971849   2 C  s         
   235    -19.922025   6 C  s                97    -17.603424   3 C  s         
   189    -17.587092   5 C  s               143     11.843278   4 C  s         
   142    -10.078372   4 C  s                 4     -9.722504   1 C  s         
    50     -8.116972   2 C  s               234     -8.144308   6 C  s         
 
 Vector   85  Occ=0.000000D+00  E= 4.052308D-01
              MO Center= -5.0D-03,  6.8D-02, -8.7D-05, r^2= 1.3D+01
   Bfn.  Coefficient  Atom+Function         Bfn.  Coefficient  Atom+Function  
  ----- ------------  ---------------      ----- ------------  ---------------
[...]
     Occ.   13 beta  a   ---  Virt.   21 beta  a   -0.05531 X
     Occ.   15 beta  a   ---  Virt.   21 beta  a   -0.10362 X
     Occ.   19 beta  a   ---  Virt.   24 beta  a   -0.22143 X
     Occ.   20 beta  a   ---  Virt.   22 beta  a    0.14505 X
  ----------------------------------------------------------------------------
  Root  27         a              0.251903553 a.u.                6.8546 eV 
  <S2> =   1.6630
  ----------------------------------------------------------------------------
     Transition Moments    X  0.00000   Y  0.00001   Z  0.24454
     Transition Moments   XX  0.00005  XY -0.00007  XZ -0.01150
     Transition Moments   YY  0.00013  YZ  0.16421  ZZ  0.00004
     Dipole Oscillator Strength                    0.0100425257
     Electric Quadrupole                           0.0000000023
     Magnetic Dipole                               0.0000000308
     Total Oscillator Strength                     0.0100425588
 
     Occ.   19 alpha a   ---  Virt.   26 alpha a    0.98206 X
     Occ.   19 alpha a   ---  Virt.   35 alpha a   -0.07100 X
     Occ.   19 alpha a   ---  Virt.   36 alpha a   -0.07376 X
     Occ.   20 alpha a   ---  Virt.   25 alpha a    0.11687 X
     Occ.   20 beta  a   ---  Virt.   26 beta  a    0.05001 X
  ----------------------------------------------------------------------------
  Root  28         a              0.252728729 a.u.                6.8771 eV 
  <S2> =   1.8907
  ----------------------------------------------------------------------------
     Transition Moments    X -0.00003   Y -0.00001   Z -0.00060
     Transition Moments   XX -0.00001  XY  0.00002  XZ -0.39119
     Transition Moments   YY -0.00007  YZ -0.02507  ZZ -0.00002
     Dipole Oscillator Strength                    0.0000000603
     Electric Quadrupole                           0.0000000132
     Magnetic Dipole                               0.0000000095
     Total Oscillator Strength                     0.0000000830
 
     Occ.   19 alpha a   ---  Virt.   25 alpha a    0.23437 X
     Occ.   20 alpha a   ---  Virt.   26 alpha a    0.96352 X
     Occ.   20 alpha a   ---  Virt.   35 alpha a   -0.06173 X
     Occ.   20 alpha a   ---  Virt.   36 alpha a   -0.06586 X
     Occ.   19 beta  a   ---  Virt.   26 beta  a   -0.06545 X
  ----------------------------------------------------------------------------
  Root  29         a              0.254101399 a.u.                6.9145 eV 
  <S2> =   1.6177
  ----------------------------------------------------------------------------
     Transition Moments    X -0.00007   Y  0.00002   Z  0.00004
     Transition Moments   XX  0.00003  XY -0.00004  XZ  0.49229
     Transition Moments   YY  0.00012  YZ  0.03102  ZZ  0.00003
     Dipole Oscillator Strength                    0.0000000011
     Electric Quadrupole                           0.0000000213
     Magnetic Dipole                               0.0000000107
     Total Oscillator Strength                     0.0000000331
 
     Occ.   20 alpha a   ---  Virt.   26 alpha a   -0.06984 X
     Occ.   19 beta  a   ---  Virt.   26 beta  a   -0.98530 X
     Occ.   19 beta  a   ---  Virt.   35 beta  a    0.05773 X
     Occ.   19 beta  a   ---  Virt.   36 beta  a    0.07412 X
     Occ.   20 beta  a   ---  Virt.   25 beta  a   -0.09491 X
  ----------------------------------------------------------------------------
  Root  30         a              0.254726407 a.u.                6.9315 eV 
  <S2> =   0.7708
  ----------------------------------------------------------------------------
     Transition Moments    X -1.50133   Y -0.09501   Z  0.00002
     Transition Moments   XX -0.02457  XY  0.19196  XZ -0.00004
     Transition Moments   YY  0.02346  YZ  0.00002  ZZ -0.00008
     Dipole Oscillator Strength                    0.3843026455
     Electric Quadrupole                           0.0000000033
     Magnetic Dipole                               0.0000000197
     Total Oscillator Strength                     0.3843026684
 
     Occ.   19 alpha a   ---  Virt.   22 alpha a   -0.37995 X
     Occ.   19 alpha a   ---  Virt.   22 alpha a    0.05305 Y
     Occ.   20 alpha a   ---  Virt.   23 alpha a    0.42647 X
     Occ.   20 alpha a   ---  Virt.   23 alpha a   -0.05105 Y
     Occ.   20 alpha a   ---  Virt.   29 alpha a   -0.13993 X
     Occ.   21 alpha a   ---  Virt.   25 alpha a    0.07649 X
     Occ.   21 alpha a   ---  Virt.   27 alpha a   -0.39078 X
     Occ.   13 beta  a   ---  Virt.   21 beta  a    0.12588 X
     Occ.   15 beta  a   ---  Virt.   21 beta  a    0.27231 X
     Occ.   19 beta  a   ---  Virt.   24 beta  a    0.49821 X
     Occ.   19 beta  a   ---  Virt.   29 beta  a   -0.13828 X
     Occ.   20 beta  a   ---  Virt.   22 beta  a   -0.34825 X
     Occ.   20 beta  a   ---  Virt.   22 beta  a    0.05605 Y
  ----------------------------------------------------------------------------
  Root  31         a              0.255335615 a.u.                6.9480 eV 
  <S2> =   0.8012
  ----------------------------------------------------------------------------
     Transition Moments    X -0.04081   Y  0.63838   Z  0.00000
     Transition Moments   XX  0.65744  XY -0.07737  XZ -0.00002
     Transition Moments   YY  1.88255  YZ  0.00003  ZZ  0.14715
     Dipole Oscillator Strength                    0.0696549390
     Electric Quadrupole                           0.0000000710
     Magnetic Dipole                               0.0000000000
     Total Oscillator Strength                     0.0696550100
 
     Occ.   19 alpha a   ---  Virt.   23 alpha a   -0.10542 X
     Occ.   20 alpha a   ---  Virt.   22 alpha a   -0.11599 X
     Occ.   21 alpha a   ---  Virt.   26 alpha a   -0.18461 X
     Occ.   21 alpha a   ---  Virt.   28 alpha a    0.90949 X
     Occ.   21 alpha a   ---  Virt.   30 alpha a    0.13023 X
     Occ.   21 alpha a   ---  Virt.   31 alpha a    0.16196 X
     Occ.   21 alpha a   ---  Virt.   48 alpha a   -0.05666 X
     Occ.   16 beta  a   ---  Virt.   21 beta  a   -0.18806 X
     Occ.   19 beta  a   ---  Virt.   22 beta  a   -0.11066 X
     Occ.   20 beta  a   ---  Virt.   24 beta  a   -0.09632 X
  ----------------------------------------------------------------------------
  Root  32         a              0.260715867 a.u.                7.0944 eV 
  <S2> =   0.8001
  ----------------------------------------------------------------------------
     Transition Moments    X  0.00001   Y -0.00002   Z  0.09533
     Transition Moments   XX -0.00000  XY -0.00001  XZ -0.04444
     Transition Moments   YY -0.00006  YZ  0.70501  ZZ -0.00000
     Dipole Oscillator Strength                    0.0015794786
     Electric Quadrupole                           0.0000000471
     Magnetic Dipole                               0.0000000330
     Total Oscillator Strength                     0.0015795587
 
     Occ.   21 alpha a   ---  Virt.   29 alpha a   -0.97952 X
     Occ.   21 alpha a   ---  Virt.   33 alpha a   -0.17976 X
  ----------------------------------------------------------------------------
  Root  33         a              0.265330893 a.u.                7.2200 eV 
  <S2> =   1.7803
  ----------------------------------------------------------------------------
     Transition Moments    X  0.00001   Y  0.00001   Z  0.00002
     Transition Moments   XX -0.00006  XY  0.00002  XZ  0.54635
     Transition Moments   YY -0.00003  YZ  0.03415  ZZ -0.00004
     Dipole Oscillator Strength                    0.0000000001
     Electric Quadrupole                           0.0000000298
     Magnetic Dipole                               0.0000000006
     Total Oscillator Strength                     0.0000000305
 
     Occ.   20 beta  a   ---  Virt.   27 beta  a    0.99104 X
     Occ.   20 beta  a   ---  Virt.   38 beta  a   -0.09635 X
  ----------------------------------------------------------------------------
  Root  34         a              0.267141416 a.u.                7.2693 eV 
  <S2> =   0.8227
  ----------------------------------------------------------------------------
     Transition Moments    X  0.07593   Y -1.20356   Z  0.00000
     Transition Moments   XX  0.02639  XY -0.04222  XZ  0.00001
     Transition Moments   YY  0.69401  YZ  0.00005  ZZ  0.04870
     Dipole Oscillator Strength                    0.2590076671
     Electric Quadrupole                           0.0000000148
     Magnetic Dipole                               0.0000000000
     Total Oscillator Strength                     0.2590076819
 
     Occ.   17 alpha a   ---  Virt.   23 alpha a   -0.08651 X
     Occ.   19 alpha a   ---  Virt.   23 alpha a    0.30446 X
     Occ.   19 alpha a   ---  Virt.   29 alpha a    0.16214 X
     Occ.   20 alpha a   ---  Virt.   22 alpha a    0.22406 X
     Occ.   21 alpha a   ---  Virt.   28 alpha a    0.30236 X
     Occ.   21 alpha a   ---  Virt.   30 alpha a   -0.42332 X
     Occ.   21 alpha a   ---  Virt.   31 alpha a    0.08013 X
     Occ.   14 beta  a   ---  Virt.   21 beta  a   -0.08830 X
     Occ.   16 beta  a   ---  Virt.   21 beta  a    0.50148 X
     Occ.   19 beta  a   ---  Virt.   22 beta  a    0.22483 X
     Occ.   20 beta  a   ---  Virt.   24 beta  a    0.30679 X
     Occ.   20 beta  a   ---  Virt.   29 beta  a    0.34781 X
  ----------------------------------------------------------------------------
  Root  35         a              0.270928685 a.u.                7.3723 eV 
  <S2> =   2.7038
  ----------------------------------------------------------------------------
     Transition Moments    X  0.00000   Y  0.00001   Z  0.00984
     Transition Moments   XX -0.00001  XY  0.00001  XZ -0.01071
     Transition Moments   YY -0.00001  YZ  0.15766  ZZ  0.00001
     Dipole Oscillator Strength                    0.0000175033
     Electric Quadrupole                           0.0000000026
     Magnetic Dipole                               0.0000000000
     Total Oscillator Strength                     0.0000175059
 
     Occ.   19 alpha a   ---  Virt.   28 alpha a   -0.05208 X
     Occ.   20 alpha a   ---  Virt.   27 alpha a   -0.79675 X
     Occ.   20 alpha a   ---  Virt.   38 alpha a    0.08781 X
     Occ.   19 beta  a   ---  Virt.   27 beta  a    0.57553 X
     Occ.   19 beta  a   ---  Virt.   38 beta  a   -0.06794 X
     Occ.   20 beta  a   ---  Virt.   28 beta  a    0.06529 X
     Occ.   20 beta  a   ---  Virt.   30 beta  a    0.06309 X
  ----------------------------------------------------------------------------
  Root  36         a              0.271345838 a.u.                7.3837 eV 
  <S2> =   2.7408
  ----------------------------------------------------------------------------
     Transition Moments    X -0.04907   Y -0.00288   Z  0.00000
     Transition Moments   XX -0.00410  XY  0.02823  XZ -0.00001
     Transition Moments   YY  0.00396  YZ  0.00004  ZZ -0.00013
     Dipole Oscillator Strength                    0.0004370042
     Electric Quadrupole                           0.0000000001
     Magnetic Dipole                               0.0000000018
     Total Oscillator Strength                     0.0004370062
 
     Occ.   17 alpha a   ---  Virt.   22 alpha a   -0.59772 X
     Occ.   17 alpha a   ---  Virt.   41 alpha a    0.05246 X
     Occ.   19 alpha a   ---  Virt.   32 alpha a    0.08429 X
     Occ.   20 alpha a   ---  Virt.   29 alpha a   -0.16428 X
     Occ.   20 alpha a   ---  Virt.   44 alpha a    0.22744 X
     Occ.   20 alpha a   ---  Virt.   47 alpha a   -0.17413 X
     Occ.   17 beta  a   ---  Virt.   22 beta  a    0.64442 X
     Occ.   17 beta  a   ---  Virt.   41 beta  a   -0.05439 X
     Occ.   19 beta  a   ---  Virt.   29 beta  a    0.10188 X
     Occ.   19 beta  a   ---  Virt.   44 beta  a   -0.20076 X
     Occ.   19 beta  a   ---  Virt.   47 beta  a    0.16669 X
     Occ.   20 beta  a   ---  Virt.   31 beta  a   -0.10245 X
  ----------------------------------------------------------------------------
  Root  37         a              0.271698707 a.u.                7.3933 eV 
  <S2> =   1.0586
  ----------------------------------------------------------------------------
     Transition Moments    X -0.03172   Y  0.50303   Z -0.00000
     Transition Moments   XX -1.04826  XY -0.11448  XZ  0.00000
     Transition Moments   YY  0.76074  YZ -0.00002  ZZ -0.23844
     Dipole Oscillator Strength                    0.0460152285
     Electric Quadrupole                           0.0000000891
     Magnetic Dipole                               0.0000000000
     Total Oscillator Strength                     0.0460153176
 
     Occ.   17 alpha a   ---  Virt.   23 alpha a    0.06154 X
     Occ.   19 alpha a   ---  Virt.   23 alpha a   -0.08803 X
     Occ.   21 alpha a   ---  Virt.   30 alpha a   -0.79709 X
     Occ.   21 alpha a   ---  Virt.   31 alpha a    0.20631 X
     Occ.   21 alpha a   ---  Virt.   35 alpha a   -0.07353 X
     Occ.   21 alpha a   ---  Virt.   40 alpha a    0.05671 X
     Occ.   14 beta  a   ---  Virt.   21 beta  a    0.06221 X
     Occ.   16 beta  a   ---  Virt.   21 beta  a   -0.18430 X
     Occ.   19 beta  a   ---  Virt.   22 beta  a   -0.05682 X
     Occ.   20 beta  a   ---  Virt.   24 beta  a   -0.09288 X
     Occ.   20 beta  a   ---  Virt.   29 beta  a   -0.48848 X
  ----------------------------------------------------------------------------
  Root  38         a              0.271921364 a.u.                7.3994 eV 
  <S2> =   0.8535
  ----------------------------------------------------------------------------
     Transition Moments    X -0.00001   Y  0.00003   Z -0.02710
     Transition Moments   XX -0.00007  XY -0.00007  XZ  0.05870
     Transition Moments   YY  0.00011  YZ -0.89587  ZZ -0.00004
     Dipole Oscillator Strength                    0.0001331070
     Electric Quadrupole                           0.0000000863
     Magnetic Dipole                               0.0000000033
     Total Oscillator Strength                     0.0001331966
 
     Occ.   20 alpha a   ---  Virt.   27 alpha a    0.56314 X
     Occ.   19 beta  a   ---  Virt.   27 beta  a    0.79728 X
     Occ.   19 beta  a   ---  Virt.   38 beta  a   -0.07498 X
     Occ.   20 beta  a   ---  Virt.   28 beta  a   -0.18259 X
  ----------------------------------------------------------------------------
  Root  39         a              0.272213694 a.u.                7.4073 eV 
  <S2> =   1.7265
  ----------------------------------------------------------------------------
     Transition Moments    X -0.00000   Y  0.00000   Z -0.00020
     Transition Moments   XX  0.00006  XY -0.00003  XZ -0.54920
     Transition Moments   YY  0.00001  YZ -0.03886  ZZ  0.00003
     Dipole Oscillator Strength                    0.0000000071
     Electric Quadrupole                           0.0000000326
     Magnetic Dipole                               0.0000000013
     Total Oscillator Strength                     0.0000000410
 
     Occ.   19 alpha a   ---  Virt.   27 alpha a   -0.99041 X
     Occ.   19 alpha a   ---  Virt.   38 alpha a    0.09581 X
  ----------------------------------------------------------------------------
  Root  40         a              0.272411013 a.u.                7.4127 eV 
  <S2> =   1.9403
  ----------------------------------------------------------------------------
     Transition Moments    X -0.00001   Y  0.00004   Z  0.03981
     Transition Moments   XX  0.00002  XY  0.00002  XZ -0.02531
     Transition Moments   YY  0.00006  YZ  0.39214  ZZ  0.00001
     Dipole Oscillator Strength                    0.0002877603
     Electric Quadrupole                           0.0000000166
     Magnetic Dipole                               0.0000000063
     Total Oscillator Strength                     0.0002877833
 
     Occ.   19 alpha a   ---  Virt.   28 alpha a   -0.11666 X
     Occ.   20 alpha a   ---  Virt.   27 alpha a    0.16825 X
     Occ.   17 beta  a   ---  Virt.   21 beta  a   -0.05497 X
     Occ.   19 beta  a   ---  Virt.   27 beta  a    0.10566 X
     Occ.   20 beta  a   ---  Virt.   28 beta  a    0.95974 X
     Occ.   20 beta  a   ---  Virt.   30 beta  a    0.05998 X
     Occ.   20 beta  a   ---  Virt.   32 beta  a    0.07303 X
     Occ.   20 beta  a   ---  Virt.   43 beta  a    0.08009 X
 
              Target root =      1
          Target symmetry = none
      Ground state energy =   -231.646324863066
        Excitation energy =      0.106220826831
     Excited state energy =   -231.540104036235
 
  stored tddft:energy   -231.540104036235     

 Task  times  cpu:     2940.5s     wall:     3038.5s
 
 
                                NWChem Input Module
                                -------------------
 
 
 Summary of allocated global arrays
-----------------------------------
  No active global arrays



                         GA Statistics for process    0
                         ------------------------------

       create   destroy   get      put      acc     scatter   gather  read&inc
calls: 9601     9601     9.92e+06 4.29e+06 2.35e+06 5660        0      298     
number of processes/call 1.32e+00 1.71e+00 1.91e+00 0.00e+00 0.00e+00
bytes total:             8.65e+10 1.17e+10 9.61e+10 6.26e+04 0.00e+00 2.38e+03
bytes remote:            6.27e+10 1.11e+09 9.17e+10 0.00e+00 0.00e+00 0.00e+00
Max memory consumed for GA by this process: 205086464 bytes
 
MA_summarize_allocated_blocks: starting scan ...
MA_summarize_allocated_blocks: scan completed: 0 heap blocks, 0 stack blocks
MA usage statistics:

	allocation statistics:
					      heap	     stack
					      ----	     -----
	current number of blocks	         0	         0
	maximum number of blocks	        20	        52
	current total bytes		         0	         0
	maximum total bytes		   1165984	  68276424
	maximum total K-bytes		      1166	     68277
	maximum total M-bytes		         2	        69
 
 
                                     CITATION
                                     --------
                Please cite the following reference when publishing
                           results obtained with NWChem:
 
                 M. Valiev, E.J. Bylaska, N. Govind, K. Kowalski,
              T.P. Straatsma, H.J.J. van Dam, D. Wang, J. Nieplocha,
                        E. Apra, T.L. Windus, W.A. de Jong
                 "NWChem: a comprehensive and scalable open-source
                  solution for large scale molecular simulations"
                      Comput. Phys. Commun. 181, 1477 (2010)
                           doi:10.1016/j.cpc.2010.04.018
 
                                      AUTHORS
                                      -------
          E. Apra, E. J. Bylaska, W. A. de Jong, N. Govind, K. Kowalski,
       T. P. Straatsma, M. Valiev, H. J. J. van Dam, D. Wang, T. L. Windus,
        J. Hammond, J. Autschbach, K. Bhaskaran-Nair, J. Brabec, K. Lopata,
    S. A. Fischer, S. Krishnamoorthy, M. Jacquelin, W. Ma, M. Klemm, O. Villa,
      Y. Chen, V. Anisimov, F. Aquino, S. Hirata, M. T. Hackler, V. Konjkov,
            D. Mejia-Rodriguez, T. Risthaus, M. Malagoli, A. Marenich,
   A. Otero-de-la-Roza, J. Mullin, P. Nichols, R. Peverati, J. Pittner, Y. Zhao,
        P.-D. Fan, A. Fonari, M. J. Williamson, R. J. Harrison, J. R. Rehr,
      M. Dupuis, D. Silverstein, D. M. A. Smith, J. Nieplocha, V. Tipparaju,
    M. Krishnan, B. E. Van Kuiken, A. Vazquez-Mayagoitia, L. Jensen, M. Swart,
      Q. Wu, T. Van Voorhis, A. A. Auer, M. Nooijen, L. D. Crosby, E. Brown,
      G. Cisneros, G. I. Fann, H. Fruchtl, J. Garza, K. Hirao, R. A. Kendall,
      J. A. Nichols, K. Tsemekhman, K. Wolinski, J. Anchell, D. E. Bernholdt,
      P. Borowski, T. Clark, D. Clerc, H. Dachsel, M. J. O. Deegan, K. Dyall,
    D. Elwood, E. Glendening, M. Gutowski, A. C. Hess, J. Jaffe, B. G. Johnson,
     J. Ju, R. Kobayashi, R. Kutteh, Z. Lin, R. Littlefield, X. Long, B. Meng,
      T. Nakajima, S. Niu, L. Pollack, M. Rosing, K. Glaesemann, G. Sandrone,
      M. Stave, H. Taylor, G. Thomas, J. H. van Lenthe, A. T. Wong, Z. Zhang.

 Total times  cpu:     2940.5s     wall:     3039.0s
