 argument  1 = /storage/home/j/jbb5516/normalModes/mode399.53-m.nw
 


============================== echo of input deck ==============================
echo
start

title "None"

geometry
C    -0.08747224    1.38830409    0.00000014
C    -1.26735482    0.69112092   -0.00105294
C    -1.16733630   -0.70470852    0.00107756
C     0.08291598   -1.31598916    0.00000004
C     1.24655610   -0.55261762   -0.00107750
C     1.17058620    0.84472727    0.00105279
H    -2.23189055    1.18090100   -0.00246477
H    -2.06748412   -1.30603725    0.00237823
H     0.15092404   -2.39537432   -0.00000018
H     2.21506130   -1.03620839   -0.00237863
H     2.06601969    1.45169726    0.00246475
symmetry c1
end

basis spherical
 * library "aug-cc-pvtz"
end

dft
 direct
 mult 2
 iterations 500
 xc b3lyp
end

tddft
 nroots 40
 notriplet
 algorithm 1
end
task tddft energy
================================================================================


                                         
                                         
 
 
              Northwest Computational Chemistry Package (NWChem) 6.8
              ------------------------------------------------------
 
 
                    Environmental Molecular Sciences Laboratory
                       Pacific Northwest National Laboratory
                                Richland, WA 99352
 
                              Copyright (c) 1994-2017
                       Pacific Northwest National Laboratory
                            Battelle Memorial Institute
 
             NWChem is an open-source computational chemistry package
                        distributed under the terms of the
                      Educational Community License (ECL) 2.0
             A copy of the license is included with this distribution
                              in the LICENSE.TXT file
 
                                  ACKNOWLEDGMENT
                                  --------------

            This software and its documentation were developed at the
            EMSL at Pacific Northwest National Laboratory, a multiprogram
            national laboratory, operated for the U.S. Department of Energy
            by Battelle under Contract Number DE-AC05-76RL01830. Support
            for this work was provided by the Department of Energy Office
            of Biological and Environmental Research, Office of Basic
            Energy Sciences, and the Office of Advanced Scientific Computing.


           Job information
           ---------------

    hostname        = comp-sc-0162.acib.production.int.aci.ics.psu.edu
    program         = /gpfs/group/lxj18/default/jeffprograms/nwchem-6.8.1/bin/LINUX64/nwchem
    date            = Sun Sep 20 17:38:16 2020

    compiled        = Wed_Oct_03_14:08:39_2018
    source          = /gpfs/group/lxj18/default/jeffprograms/nwchem-6.8.1
    nwchem branch   = 6.8.1
    nwchem revision = v6.8-143-gdb0d964
    ga revision     = 5.6.5
    use scalapack   = F
    input           = /storage/home/j/jbb5516/normalModes/mode399.53-m.nw
    prefix          = mode399.53-m.
    data base       = ./mode399.53-m.db
    status          = startup
    nproc           =       20
    time left       =     -1s



           Memory information
           ------------------

    heap     =   13107198 doubles =    100.0 Mbytes
    stack    =   13107195 doubles =    100.0 Mbytes
    global   =   26214400 doubles =    200.0 Mbytes (distinct from heap & stack)
    total    =   52428793 doubles =    400.0 Mbytes
    verify   = yes
    hardfail = no 


           Directory information
           ---------------------
 
  0 permanent = .
  0 scratch   = .
 
 
 
 
                                NWChem Input Module
                                -------------------
 
 
                                       None
                                       ----

 Scaling coordinates for geometry "geometry" by  1.889725989
 (inverse scale =  0.529177249)

 Turning off AUTOSYM since
 SYMMETRY directive was detected!
 

          ------
          auto-z
          ------
 
 
                             Geometry "geometry" -> ""
                             -------------------------
 
 Output coordinates in angstroms (scale by  1.889725989 to convert to a.u.)
 
  No.       Tag          Charge          X              Y              Z
 ---- ---------------- ---------- -------------- -------------- --------------
    1 C                    6.0000    -0.08747224     1.38830409     0.00000014
    2 C                    6.0000    -1.26735482     0.69112092    -0.00105294
    3 C                    6.0000    -1.16733630    -0.70470852     0.00107756
    4 C                    6.0000     0.08291598    -1.31598916     0.00000004
    5 C                    6.0000     1.24655610    -0.55261762    -0.00107750
    6 C                    6.0000     1.17058620     0.84472727     0.00105279
    7 H                    1.0000    -2.23189055     1.18090100    -0.00246477
    8 H                    1.0000    -2.06748412    -1.30603725     0.00237823
    9 H                    1.0000     0.15092404    -2.39537432    -0.00000018
   10 H                    1.0000     2.21506130    -1.03620839    -0.00237863
   11 H                    1.0000     2.06601969     1.45169726     0.00246475
 
      Atomic Mass 
      ----------- 
 
      C                 12.000000
      H                  1.007825
 

 Effective nuclear repulsion energy (a.u.)     195.0639303329

            Nuclear Dipole moment (a.u.) 
            ----------------------------
        X                 Y               Z
 ---------------- ---------------- ----------------
    -0.0000000000     0.0000000000     0.0000000000
 


                                Z-matrix (autoz)
                                -------- 

 Units are Angstrom for bonds and degrees for angles
 
      Type          Name      I     J     K     L     M      Value
      ----------- --------  ----- ----- ----- ----- ----- ----------
    1 Stretch                  1     2                       1.37047
    2 Stretch                  1     6                       1.37047
    3 Stretch                  2     3                       1.39941
    4 Stretch                  2     7                       1.08177
    5 Stretch                  3     4                       1.39169
    6 Stretch                  3     8                       1.08253
    7 Stretch                  4     5                       1.39169
    8 Stretch                  4     9                       1.08153
    9 Stretch                  5     6                       1.39941
   10 Stretch                  5    10                       1.08253
   11 Stretch                  6    11                       1.08177
   12 Bend                     1     2     3               116.47985
   13 Bend                     1     2     7               122.50059
   14 Bend                     1     6     5               116.47985
   15 Bend                     1     6    11               122.50061
   16 Bend                     2     1     6               126.05350
   17 Bend                     2     3     4               120.15362
   18 Bend                     2     3     8               119.64576
   19 Bend                     3     2     7               121.01954
   20 Bend                     3     4     5               120.67913
   21 Bend                     3     4     9               119.66042
   22 Bend                     4     3     8               120.20058
   23 Bend                     4     5     6               120.15361
   24 Bend                     4     5    10               120.20062
   25 Bend                     5     4     9               119.66045
   26 Bend                     5     6    11               121.01951
   27 Bend                     6     5    10               119.64573
   28 Torsion                  1     2     3     4          -0.19462
   29 Torsion                  1     2     3     8         179.87780
   30 Torsion                  1     6     5     4          -0.19459
   31 Torsion                  1     6     5    10         179.87779
   32 Torsion                  2     1     6     5           0.09695
   33 Torsion                  2     1     6    11        -179.96179
   34 Torsion                  2     3     4     5           0.10139
   35 Torsion                  2     3     4     9        -179.89860
   36 Torsion                  3     2     1     6           0.09700
   37 Torsion                  3     4     5     6           0.10138
   38 Torsion                  3     4     5    10        -179.97140
   39 Torsion                  4     3     2     7         179.86322
   40 Torsion                  4     5     6    11         179.86321
   41 Torsion                  5     4     3     8        -179.97143
   42 Torsion                  6     1     2     7        -179.96177
   43 Torsion                  6     5     4     9        -179.89864
   44 Torsion                  7     2     3     8          -0.06437
   45 Torsion                  8     3     4     9           0.02858
   46 Torsion                  9     4     5    10           0.02858
   47 Torsion                 10     5     6    11          -0.06441
 
 
            XYZ format geometry
            -------------------
    11
 geometry
 C                    -0.08747224     1.38830409     0.00000014
 C                    -1.26735482     0.69112092    -0.00105294
 C                    -1.16733630    -0.70470852     0.00107756
 C                     0.08291598    -1.31598916     0.00000004
 C                     1.24655610    -0.55261762    -0.00107750
 C                     1.17058620     0.84472727     0.00105279
 H                    -2.23189055     1.18090100    -0.00246477
 H                    -2.06748412    -1.30603725     0.00237823
 H                     0.15092404    -2.39537432    -0.00000018
 H                     2.21506130    -1.03620839    -0.00237863
 H                     2.06601969     1.45169726     0.00246475
 
 ==============================================================================
                                internuclear distances
 ------------------------------------------------------------------------------
       center one      |      center two      | atomic units |  angstroms
 ------------------------------------------------------------------------------
    2 C                |   1 C                |     2.58981  |     1.37047
    3 C                |   2 C                |     2.64450  |     1.39941
    4 C                |   3 C                |     2.62991  |     1.39169
    5 C                |   4 C                |     2.62991  |     1.39169
    6 C                |   1 C                |     2.58981  |     1.37047
    6 C                |   5 C                |     2.64450  |     1.39941
    7 H                |   2 C                |     2.04424  |     1.08177
    8 H                |   3 C                |     2.04568  |     1.08253
    9 H                |   4 C                |     2.04379  |     1.08153
   10 H                |   5 C                |     2.04568  |     1.08253
   11 H                |   6 C                |     2.04424  |     1.08177
 ------------------------------------------------------------------------------
                         number of included internuclear distances:         11
 ==============================================================================



 ==============================================================================
                                 internuclear angles
 ------------------------------------------------------------------------------
        center 1       |       center 2       |       center 3       |  degrees
 ------------------------------------------------------------------------------
    2 C                |   1 C                |   6 C                |   126.05
    1 C                |   2 C                |   3 C                |   116.48
    1 C                |   2 C                |   7 H                |   122.50
    3 C                |   2 C                |   7 H                |   121.02
    2 C                |   3 C                |   4 C                |   120.15
    2 C                |   3 C                |   8 H                |   119.65
    4 C                |   3 C                |   8 H                |   120.20
    3 C                |   4 C                |   5 C                |   120.68
    3 C                |   4 C                |   9 H                |   119.66
    5 C                |   4 C                |   9 H                |   119.66
    4 C                |   5 C                |   6 C                |   120.15
    4 C                |   5 C                |  10 H                |   120.20
    6 C                |   5 C                |  10 H                |   119.65
    1 C                |   6 C                |   5 C                |   116.48
    1 C                |   6 C                |  11 H                |   122.50
    5 C                |   6 C                |  11 H                |   121.02
 ------------------------------------------------------------------------------
                            number of included internuclear angles:         16
 ==============================================================================





 Summary of "ao basis" -> "" (spherical)
 ------------------------------------------------------------------------------
       Tag                 Description            Shells   Functions and Types
 ---------------- ------------------------------  ------  ---------------------
 *                        aug-cc-pvtz                 on all atoms 


 
                                 NWChem DFT Module
                                 -----------------
 
 
                                       None
 
 
                      Basis "ao basis" -> "ao basis" (spherical)
                      -----
  C (Carbon)
  ----------
            Exponent  Coefficients 
       -------------- ---------------------------------------------------------
  1 S  8.23600000E+03  0.000531
  1 S  1.23500000E+03  0.004108
  1 S  2.80800000E+02  0.021087
  1 S  7.92700000E+01  0.081853
  1 S  2.55900000E+01  0.234817
  1 S  8.99700000E+00  0.434401
  1 S  3.31900000E+00  0.346129
  1 S  3.64300000E-01 -0.008983
 
  2 S  8.23600000E+03 -0.000113
  2 S  1.23500000E+03 -0.000878
  2 S  2.80800000E+02 -0.004540
  2 S  7.92700000E+01 -0.018133
  2 S  2.55900000E+01 -0.055760
  2 S  8.99700000E+00 -0.126895
  2 S  3.31900000E+00 -0.170352
  2 S  3.64300000E-01  0.598684
 
  3 S  9.05900000E-01  1.000000
 
  4 S  1.28500000E-01  1.000000
 
  5 S  4.40200000E-02  1.000000
 
  6 P  1.87100000E+01  0.014031
  6 P  4.13300000E+00  0.086866
  6 P  1.20000000E+00  0.290216
 
  7 P  3.82700000E-01  1.000000
 
  8 P  1.20900000E-01  1.000000
 
  9 P  3.56900000E-02  1.000000
 
 10 D  1.09700000E+00  1.000000
 
 11 D  3.18000000E-01  1.000000
 
 12 D  1.00000000E-01  1.000000
 
 13 F  7.61000000E-01  1.000000
 
 14 F  2.68000000E-01  1.000000
 
  H (Hydrogen)
  ------------
            Exponent  Coefficients 
       -------------- ---------------------------------------------------------
  1 S  3.38700000E+01  0.006068
  1 S  5.09500000E+00  0.045308
  1 S  1.15900000E+00  0.202822
 
  2 S  3.25800000E-01  1.000000
 
  3 S  1.02700000E-01  1.000000
 
  4 S  2.52600000E-02  1.000000
 
  5 P  1.40700000E+00  1.000000
 
  6 P  3.88000000E-01  1.000000
 
  7 P  1.02000000E-01  1.000000
 
  8 D  1.05700000E+00  1.000000
 
  9 D  2.47000000E-01  1.000000
 


 Summary of "ao basis" -> "ao basis" (spherical)
 ------------------------------------------------------------------------------
       Tag                 Description            Shells   Functions and Types
 ---------------- ------------------------------  ------  ---------------------
 C                        aug-cc-pvtz               14       46   5s4p3d2f
 H                        aug-cc-pvtz                9       23   4s3p2d




 Summary of "ao basis" -> "ao basis" (spherical)
 ------------------------------------------------------------------------------
       Tag                 Description            Shells   Functions and Types
 ---------------- ------------------------------  ------  ---------------------
 C                        aug-cc-pvtz               14       46   5s4p3d2f
 H                        aug-cc-pvtz                9       23   4s3p2d


  Caching 1-el integrals 
 
            General Information
            -------------------
          SCF calculation type: DFT
          Wavefunction type:  spin polarized.
          No. of atoms     :    11
          No. of electrons :    41
           Alpha electrons :    21
            Beta electrons :    20
          Charge           :     0
          Spin multiplicity:     2
          Use of symmetry is: off; symmetry adaption is: off
          Maximum number of iterations: 500
          This is a Direct SCF calculation.
          AO basis - number of functions:   391
                     number of shells:   129
          Convergence on energy requested:  1.00D-06
          Convergence on density requested:  1.00D-05
          Convergence on gradient requested:  5.00D-04
 
              XC Information
              --------------
                         B3LYP Method XC Potential
                     Hartree-Fock (Exact) Exchange  0.200          
                        Slater Exchange Functional  0.800 local    
                    Becke 1988 Exchange Functional  0.720 non-local
              Lee-Yang-Parr Correlation Functional  0.810          
                  VWN I RPA Correlation Functional  0.190 local    
 
             Grid Information
             ----------------
          Grid used for XC integration:  medium    
          Radial quadrature: Mura-Knowles        
          Angular quadrature: Lebedev. 
          Tag              B.-S. Rad. Rad. Pts. Rad. Cut. Ang. Pts.
          ---              ---------- --------- --------- ---------
          C                   0.70       49          15.0       434
          H                   0.35       45          17.0       434
          Grid pruning is: on 
          Number of quadrature shells:   519
          Spatial weights used:  Erf1
 
          Convergence Information
          -----------------------
          Convergence aids based upon iterative change in 
          total energy or number of iterations. 
          Levelshifting, if invoked, occurs when the 
          HOMO/LUMO gap drops below (HL_TOL):  1.00D-02
          DIIS, if invoked, will attempt to extrapolate 
          using up to (NFOCK): 10 stored Fock matrices.

                    Damping( 0%)  Levelshifting(0.5)       DIIS
                  --------------- ------------------- ---------------
          dE  on:    start            ASAP                start   
          dE off:    2 iters        500 iters           500 iters 

 
      Screening Tolerance Information
      -------------------------------
          Density screening/tol_rho:  1.00D-10
          AO Gaussian exp screening on grid/accAOfunc:  14
          CD Gaussian exp screening on grid/accCDfunc:  20
          XC Gaussian exp screening on grid/accXCfunc:  20
          Schwarz screening/accCoul:  1.00D-08

 
 WARNING : Found     7 linear dependencies 
 S eigenvalue threshold:     1.00000E-05
 Smallest S eigenvalue :     1.46356E-06
 Largest  S eigenvalue :     7.76608E-06
 

 !! The overlap matrix has   7 vectors deemed linearly dependent with
    eigenvalues:
 1.46D-06 2.24D-06 2.83D-06 3.54D-06 5.28D-06 5.95D-06 7.77D-06
 
 
      Superposition of Atomic Density Guess
      -------------------------------------
 
 Sum of atomic energies:        -228.52307259
 
      Non-variational initial energy
      ------------------------------

 Total energy =    -232.667200
 1-e energy   =    -691.328381
 2-e energy   =     263.597251
 HOMO         =      -0.183326
 LUMO         =      -0.022269
 
   Time after variat. SCF:     10.8
   Time prior to 1st pass:     10.8

 Grid_pts file          = ./mode399.53-m.gridpts.00
 Record size in doubles =  12289        No. of grid_pts per rec  =   3070
 Max. records in memory =      6        Max. recs in file   = 220491565

 Grid integrated density:      40.999765893698
 Requested integration accuracy:   0.10E-05

           Memory utilization after 1st SCF pass: 
           Heap Space remaining (MW):       12.96            12961278
          Stack Space remaining (MW):       13.10            13103676

   convergence    iter        energy       DeltaE   RMS-Dens  Diis-err    time
 ---------------- ----- ----------------- --------- --------- ---------  ------
 d= 0,ls=0.0,diis     1   -231.5815922820 -4.27D+02  6.18D-02  2.09D-01    23.5
                                                     6.98D-02  1.96D-01
 d= 0,ls=0.0,diis     2   -231.6398335550 -5.82D-02  6.09D-02  1.22D-02    36.1
                                                     6.87D-02  1.25D-02
 d= 0,ls=0.0,diis     3   -231.6446113824 -4.78D-03  1.28D-03  3.44D-03    48.7
                                                     1.38D-03  3.50D-03
 d= 0,ls=0.0,diis     4   -231.6457681487 -1.16D-03  2.03D-04  1.12D-03    61.4
                                                     2.07D-04  1.06D-03
 d= 0,ls=0.0,diis     5   -231.6462863686 -5.18D-04  3.40D-05  4.24D-05    74.0
                                                     3.12D-05  4.84D-05
  Resetting Diis
 d= 0,ls=0.0,diis     6   -231.6463142476 -2.79D-05  1.11D-05  7.81D-06    86.7
                                                     1.06D-05  6.31D-06
 d= 0,ls=0.0,diis     7   -231.6463204429 -6.20D-06  7.31D-06  2.13D-06    99.3
                                                     6.52D-06  2.39D-06
 d= 0,ls=0.0,diis     8   -231.6463215163 -1.07D-06  3.06D-06  5.48D-06   112.0
                                                     2.71D-06  4.83D-06
 d= 0,ls=0.0,diis     9   -231.6463248084 -3.29D-06  3.74D-06  3.84D-07   124.6
                                                     3.31D-06  3.27D-07
 d= 0,ls=0.0,diis    10   -231.6463261129 -1.30D-06  2.14D-06  1.89D-07   137.3
                                                     2.45D-06  2.88D-07
 d= 0,ls=0.0,diis    11   -231.6463265468 -4.34D-07  5.94D-07  1.19D-08   150.0
                                                     5.14D-07  9.03D-09


         Total DFT energy =     -231.646326546847
      One electron energy =     -696.560834904878
           Coulomb energy =      304.259766517594
    Exchange-Corr. energy =      -34.409188492428
 Nuclear repulsion energy =      195.063930332864

 Numeric. integr. density =       40.999984401090

     Total iterative time =    139.2s


 
                    DFT Final Alpha Molecular Orbital Analysis
                    ------------------------------------------
 
 Vector    1  Occ=1.000000D+00  E=-1.020525D+01
              MO Center= -8.7D-02,  1.4D+00,  1.4D-07, r^2= 3.0D-02
   Bfn.  Coefficient  Atom+Function         Bfn.  Coefficient  Atom+Function  
  ----- ------------  ---------------      ----- ------------  ---------------
     1      0.984164   1 C  s                 3      0.058854   1 C  s         
    50     -0.038415   2 C  s               234     -0.038416   6 C  s         
   143      0.037877   4 C  s               279      0.037951   7 H  s         
   371      0.037950  11 H  s                51     -0.030672   2 C  s         
   235     -0.030671   6 C  s                47      0.025288   2 C  s         
 
 Vector    2  Occ=1.000000D+00  E=-1.019183D+01
              MO Center= -7.3D-01, -6.3D-01,  6.3D-04, r^2= 9.6D-01
   Bfn.  Coefficient  Atom+Function         Bfn.  Coefficient  Atom+Function  
  ----- ------------  ---------------      ----- ------------  ---------------
    93      0.874191   3 C  s               185      0.411868   5 C  s         
    47      0.176795   2 C  s               142     -0.092912   4 C  s         
   231      0.071976   6 C  s               139      0.055741   4 C  s         
    95      0.052268   3 C  s               302      0.049063   8 H  s         
   325      0.048086   9 H  s               234      0.036386   6 C  s         
 
 Vector    3  Occ=1.000000D+00  E=-1.019180D+01
              MO Center=  8.1D-01, -5.2D-01, -6.3D-04, r^2= 9.8D-01
   Bfn.  Coefficient  Atom+Function         Bfn.  Coefficient  Atom+Function  
  ----- ------------  ---------------      ----- ------------  ---------------
   185      0.872184   5 C  s                93     -0.407661   3 C  s         
   231      0.190377   6 C  s                47     -0.100652   2 C  s         
    50      0.062544   2 C  s               348      0.059059  10 H  s         
    51      0.052892   2 C  s               187      0.051930   5 C  s         
   279     -0.051674   7 H  s               234     -0.051089   6 C  s         
 
 Vector    4  Occ=1.000000D+00  E=-1.019034D+01
              MO Center= -1.1D+00,  6.4D-01, -8.7D-04, r^2= 3.9D-01
   Bfn.  Coefficient  Atom+Function         Bfn.  Coefficient  Atom+Function  
  ----- ------------  ---------------      ----- ------------  ---------------
    47      0.940275   2 C  s               231      0.221361   6 C  s         
    93     -0.191973   3 C  s               279      0.058559   7 H  s         
    49      0.054937   2 C  s               143      0.037882   4 C  s         
     4     -0.035240   1 C  s               185     -0.033130   5 C  s         
   142     -0.032006   4 C  s               189      0.031687   5 C  s         
 
 Vector    5  Occ=1.000000D+00  E=-1.019033D+01
              MO Center=  1.0D+00,  7.7D-01,  8.6D-04, r^2= 4.0D-01
   Bfn.  Coefficient  Atom+Function         Bfn.  Coefficient  Atom+Function  
  ----- ------------  ---------------      ----- ------------  ---------------
   231      0.938664   6 C  s                47     -0.214496   2 C  s         
   185     -0.197611   5 C  s                93      0.056942   3 C  s         
   371      0.056256  11 H  s               233      0.054440   6 C  s         
    97      0.045924   3 C  s                96      0.041034   3 C  s         
   189     -0.039672   5 C  s                12     -0.037467   1 C  px        
 
 Vector    6  Occ=1.000000D+00  E=-1.018432D+01
              MO Center=  8.3D-02, -1.3D+00,  3.4D-08, r^2= 3.5D-02
   Bfn.  Coefficient  Atom+Function         Bfn.  Coefficient  Atom+Function  
  ----- ------------  ---------------      ----- ------------  ---------------
   139      0.984285   4 C  s               141      0.057792   4 C  s         
    96     -0.045907   3 C  s               188     -0.045909   5 C  s         
   325      0.046006   9 H  s               143     -0.043503   4 C  s         
     4      0.040389   1 C  s                93     -0.039661   3 C  s         
   185     -0.039746   5 C  s               151      0.036017   4 C  py        
 
 Vector    7  Occ=1.000000D+00  E=-8.724600D-01
              MO Center= -6.3D-03,  9.9D-02,  1.0D-08, r^2= 2.0D+00
   Bfn.  Coefficient  Atom+Function         Bfn.  Coefficient  Atom+Function  
  ----- ------------  ---------------      ----- ------------  ---------------
     2      0.214063   1 C  s                48      0.202671   2 C  s         
   232      0.202654   6 C  s                94      0.195596   3 C  s         
   186      0.195579   5 C  s               140      0.188217   4 C  s         
    50      0.090242   2 C  s               234      0.090233   6 C  s         
    96      0.088095   3 C  s               188      0.088089   5 C  s         
 
 Vector    8  Occ=1.000000D+00  E=-7.627316D-01
              MO Center= -6.3D-03,  1.0D-01, -1.0D-08, r^2= 2.8D+00
   Bfn.  Coefficient  Atom+Function         Bfn.  Coefficient  Atom+Function  
  ----- ------------  ---------------      ----- ------------  ---------------
    48      0.250858   2 C  s               232     -0.250868   6 C  s         
    94      0.243819   3 C  s               186     -0.243826   5 C  s         
    50      0.146206   2 C  s               234     -0.146214   6 C  s         
   279     -0.129367   7 H  s               371      0.129371  11 H  s         
   150     -0.115529   4 C  px               97      0.110849   3 C  s         
 
 Vector    9  Occ=1.000000D+00  E=-7.537325D-01
              MO Center=  9.2D-03, -1.5D-01,  1.2D-08, r^2= 2.6D+00
   Bfn.  Coefficient  Atom+Function         Bfn.  Coefficient  Atom+Function  
  ----- ------------  ---------------      ----- ------------  ---------------
   140     -0.300918   4 C  s                 2      0.278553   1 C  s         
    94     -0.148872   3 C  s               186     -0.148864   5 C  s         
    48      0.148026   2 C  s               142     -0.147432   4 C  s         
   232      0.148016   6 C  s                96     -0.104911   3 C  s         
   188     -0.104909   5 C  s                 4      0.103024   1 C  s         
 
 Vector   10  Occ=1.000000D+00  E=-6.187400D-01
              MO Center= -2.5D-03,  3.9D-02,  8.4D-09, r^2= 3.6D+00
   Bfn.  Coefficient  Atom+Function         Bfn.  Coefficient  Atom+Function  
  ----- ------------  ---------------      ----- ------------  ---------------
    94     -0.208567   3 C  s               186      0.208561   5 C  s         
    48      0.199457   2 C  s               232     -0.199463   6 C  s         
    50      0.183366   2 C  s               234     -0.183373   6 C  s         
    96     -0.146963   3 C  s               188      0.146953   5 C  s         
     6     -0.127295   1 C  px              144      0.116926   4 C  px        
 
 Vector   11  Occ=1.000000D+00  E=-6.035485D-01
              MO Center=  5.4D-03, -8.7D-02, -5.1D-08, r^2= 3.5D+00
   Bfn.  Coefficient  Atom+Function         Bfn.  Coefficient  Atom+Function  
  ----- ------------  ---------------      ----- ------------  ---------------
   142      0.258350   4 C  s                 2      0.238938   1 C  s         
   140      0.218767   4 C  s                 4      0.198691   1 C  s         
    94     -0.138340   3 C  s               186     -0.138359   5 C  s         
    50     -0.122716   2 C  s               234     -0.122706   6 C  s         
    96     -0.119271   3 C  s               188     -0.119283   5 C  s         
 
 Vector   12  Occ=1.000000D+00  E=-5.277271D-01
              MO Center=  9.4D-03, -1.5D-01, -5.0D-08, r^2= 4.1D+00
   Bfn.  Coefficient  Atom+Function         Bfn.  Coefficient  Atom+Function  
  ----- ------------  ---------------      ----- ------------  ---------------
   148      0.159263   4 C  py              145      0.138838   4 C  py        
   324     -0.126840   9 H  s                55      0.105300   2 C  px        
   240     -0.104900   6 C  py              323     -0.100378   9 H  s         
   237     -0.096178   6 C  py              193     -0.094439   5 C  px        
   278     -0.094490   7 H  s               370     -0.094483  11 H  s         
 
 Vector   13  Occ=1.000000D+00  E=-4.645291D-01
              MO Center= -6.7D-03,  1.0D-01, -2.5D-07, r^2= 2.7D+00
   Bfn.  Coefficient  Atom+Function         Bfn.  Coefficient  Atom+Function  
  ----- ------------  ---------------      ----- ------------  ---------------
     9      0.189041   1 C  px                6      0.175363   1 C  px        
   147      0.172357   4 C  px              144      0.159073   4 C  px        
   239     -0.136870   6 C  px              194     -0.134749   5 C  py        
    56     -0.131373   2 C  py               55     -0.121400   2 C  px        
   191     -0.121432   5 C  py              236     -0.121875   6 C  px        
 
 Vector   14  Occ=1.000000D+00  E=-4.631588D-01
              MO Center=  1.0D-02, -1.6D-01,  2.9D-07, r^2= 4.8D+00
   Bfn.  Coefficient  Atom+Function         Bfn.  Coefficient  Atom+Function  
  ----- ------------  ---------------      ----- ------------  ---------------
     2      0.176558   1 C  s               301      0.136701   8 H  s         
   347      0.136676  10 H  s               140     -0.129403   4 C  s         
   193      0.127764   5 C  px              196      0.120320   5 C  px        
   101     -0.118803   3 C  px              190      0.118565   5 C  px        
    96      0.117518   3 C  s               104     -0.117395   3 C  px        
 
 Vector   15  Occ=1.000000D+00  E=-4.399777D-01
              MO Center= -1.3D-02,  2.1D-01, -9.3D-08, r^2= 4.0D+00
   Bfn.  Coefficient  Atom+Function         Bfn.  Coefficient  Atom+Function  
  ----- ------------  ---------------      ----- ------------  ---------------
   240      0.143967   6 C  py              102      0.139210   3 C  py        
   237      0.132907   6 C  py              278     -0.131462   7 H  s         
   370      0.131459  11 H  s                99      0.130194   3 C  py        
    55      0.129421   2 C  px               56     -0.128747   2 C  py        
   194     -0.126950   5 C  py               53     -0.119658   2 C  py        
 
 Vector   16  Occ=1.000000D+00  E=-3.990528D-01
              MO Center=  4.9D-02, -7.8D-01, -1.1D-08, r^2= 3.3D+00
   Bfn.  Coefficient  Atom+Function         Bfn.  Coefficient  Atom+Function  
  ----- ------------  ---------------      ----- ------------  ---------------
   148      0.233510   4 C  py              145      0.209191   4 C  py        
   324     -0.198592   9 H  s               151      0.172701   4 C  py        
   323     -0.154029   9 H  s                10      0.138647   1 C  py        
    13      0.120983   1 C  py              240      0.115209   6 C  py        
    56      0.109434   2 C  py                7      0.107929   1 C  py        
 
 Vector   17  Occ=1.000000D+00  E=-3.837016D-01
              MO Center= -7.7D-03,  1.2D-01,  2.8D-08, r^2= 2.7D+00
   Bfn.  Coefficient  Atom+Function         Bfn.  Coefficient  Atom+Function  
  ----- ------------  ---------------      ----- ------------  ---------------
    11      0.173445   1 C  pz               57      0.156407   2 C  pz        
   241      0.156395   6 C  pz              103      0.152228   3 C  pz        
   195      0.152216   5 C  pz              149      0.145887   4 C  pz        
     8      0.136820   1 C  pz               54      0.125781   2 C  pz        
   238      0.125771   6 C  pz              100      0.121729   3 C  pz        
 
 Vector   18  Occ=1.000000D+00  E=-3.659890D-01
              MO Center=  9.1D-03, -1.4D-01, -3.2D-08, r^2= 4.1D+00
   Bfn.  Coefficient  Atom+Function         Bfn.  Coefficient  Atom+Function  
  ----- ------------  ---------------      ----- ------------  ---------------
   147     -0.169327   4 C  px              101      0.165175   3 C  px        
   193      0.165095   5 C  px              144     -0.159880   4 C  px        
     9      0.149411   1 C  px               98      0.149453   3 C  px        
   190      0.149150   5 C  px                6      0.141594   1 C  px        
   196      0.135662   5 C  px              104      0.133542   3 C  px        
 
 Vector   19  Occ=1.000000D+00  E=-2.685136D-01
              MO Center=  9.1D-04, -1.5D-02,  5.5D-07, r^2= 3.0D+00
   Bfn.  Coefficient  Atom+Function         Bfn.  Coefficient  Atom+Function  
  ----- ------------  ---------------      ----- ------------  ---------------
    11      0.245300   1 C  pz              149     -0.238556   4 C  pz        
     8      0.192908   1 C  pz              146     -0.190710   4 C  pz        
    14      0.176328   1 C  pz              152     -0.171624   4 C  pz        
   103     -0.126597   3 C  pz              195     -0.126468   5 C  pz        
    57      0.114765   2 C  pz              241      0.114884   6 C  pz        
 
 Vector   20  Occ=1.000000D+00  E=-2.678700D-01
              MO Center= -3.8D-03,  6.1D-02, -3.9D-07, r^2= 3.1D+00
   Bfn.  Coefficient  Atom+Function         Bfn.  Coefficient  Atom+Function  
  ----- ------------  ---------------      ----- ------------  ---------------
   103      0.207439   3 C  pz              195     -0.207520   5 C  pz        
    57      0.203846   2 C  pz              241     -0.203783   6 C  pz        
   100      0.165270   3 C  pz              192     -0.165335   5 C  pz        
    54      0.163240   2 C  pz              238     -0.163190   6 C  pz        
    60      0.150529   2 C  pz              106      0.149948   3 C  pz        
 
 Vector   21  Occ=1.000000D+00  E=-2.484188D-01
              MO Center= -8.2D-02,  1.3D+00,  4.1D-08, r^2= 2.3D+00
   Bfn.  Coefficient  Atom+Function         Bfn.  Coefficient  Atom+Function  
  ----- ------------  ---------------      ----- ------------  ---------------
    10      0.385994   1 C  py               13      0.337691   1 C  py        
     5      0.335245   1 C  s                 7      0.299344   1 C  py        
     4      0.279438   1 C  s                 2      0.138351   1 C  s         
   243     -0.136198   6 C  py               59     -0.134142   2 C  py        
   102      0.112395   3 C  py              194      0.112407   5 C  py        
 
 Vector   22  Occ=0.000000D+00  E=-2.600779D-02
              MO Center= -4.3D-03,  6.8D-02, -5.6D-08, r^2= 4.3D+00
   Bfn.  Coefficient  Atom+Function         Bfn.  Coefficient  Atom+Function  
  ----- ------------  ---------------      ----- ------------  ---------------
   109     -0.320088   3 C  pz              201      0.320068   5 C  pz        
    63      0.314635   2 C  pz              247     -0.314622   6 C  pz        
    60      0.226968   2 C  pz              244     -0.226960   6 C  pz        
   106     -0.223733   3 C  pz              198      0.223720   5 C  pz        
    57      0.218764   2 C  pz              241     -0.218759   6 C  pz        
 
 Vector   23  Occ=0.000000D+00  E=-1.861246D-02
              MO Center=  3.1D-03, -5.0D-02, -5.1D-07, r^2= 4.3D+00
   Bfn.  Coefficient  Atom+Function         Bfn.  Coefficient  Atom+Function  
  ----- ------------  ---------------      ----- ------------  ---------------
   155      0.439592   4 C  pz               17      0.373556   1 C  pz        
   152      0.273937   4 C  pz               11      0.258952   1 C  pz        
   149      0.250782   4 C  pz               14      0.240478   1 C  pz        
   109     -0.226072   3 C  pz              201     -0.226083   5 C  pz        
     8      0.200623   1 C  pz               63     -0.198214   2 C  pz        
 
 Vector   24  Occ=0.000000D+00  E=-1.010973D-02
              MO Center=  6.0D-02, -9.5D-01,  3.0D-07, r^2= 2.0D+01
   Bfn.  Coefficient  Atom+Function         Bfn.  Coefficient  Atom+Function  
  ----- ------------  ---------------      ----- ------------  ---------------
     5      1.446695   1 C  s               279     -0.976469   7 H  s         
   371     -0.976470  11 H  s               326     -0.741565   9 H  s         
   303     -0.730333   8 H  s               349     -0.730196  10 H  s         
   302     -0.650225   8 H  s               348     -0.650232  10 H  s         
   325     -0.588348   9 H  s                51      0.561474   2 C  s         
 
 Vector   25  Occ=0.000000D+00  E= 4.382028D-03
              MO Center=  1.6D-02, -2.6D-01, -1.0D-06, r^2= 2.7D+01
   Bfn.  Coefficient  Atom+Function         Bfn.  Coefficient  Atom+Function  
  ----- ------------  ---------------      ----- ------------  ---------------
    51      2.731989   2 C  s               235     -2.731736   6 C  s         
    97      2.672785   3 C  s               189     -2.672791   5 C  s         
   303      1.996694   8 H  s               349     -1.996810  10 H  s         
    15      1.866829   1 C  px              153      1.807502   4 C  px        
   280      1.540145   7 H  s               372     -1.540037  11 H  s         
 
 Vector   26  Occ=0.000000D+00  E= 8.728817D-03
              MO Center=  4.6D-03, -7.3D-02,  2.1D-06, r^2= 2.7D+01
   Bfn.  Coefficient  Atom+Function         Bfn.  Coefficient  Atom+Function  
  ----- ------------  ---------------      ----- ------------  ---------------
   143      6.245491   4 C  s                51     -4.009999   2 C  s         
   235     -4.010166   6 C  s               326      2.932212   9 H  s         
     5      2.590050   1 C  s               280     -2.388412   7 H  s         
   372     -2.388406  11 H  s               154      1.947145   4 C  py        
   246      1.934066   6 C  py               62      1.829906   2 C  py        
 
 Vector   27  Occ=0.000000D+00  E= 2.670476D-02
              MO Center= -1.5D-02,  2.4D-01,  1.2D-07, r^2= 3.1D+01
   Bfn.  Coefficient  Atom+Function         Bfn.  Coefficient  Atom+Function  
  ----- ------------  ---------------      ----- ------------  ---------------
   280      3.932327   7 H  s               372     -3.932406  11 H  s         
    51      3.658867   2 C  s               235     -3.659224   6 C  s         
   303     -3.601877   8 H  s               349      3.601733  10 H  s         
    61      2.222004   2 C  px               97     -2.190000   3 C  s         
   189      2.190007   5 C  s               199     -2.040830   5 C  px        
 
 Vector   28  Occ=0.000000D+00  E= 3.221615D-02
              MO Center=  3.9D-02, -6.2D-01,  1.6D-05, r^2= 2.9D+01
   Bfn.  Coefficient  Atom+Function         Bfn.  Coefficient  Atom+Function  
  ----- ------------  ---------------      ----- ------------  ---------------
     5      6.397123   1 C  s               326     -4.998404   9 H  s         
   303      3.725483   8 H  s               349      3.725801  10 H  s         
    97     -2.179795   3 C  s               154     -2.176376   4 C  py        
   189     -2.179431   5 C  s               199     -1.647709   5 C  px        
   245      1.634081   6 C  px               61     -1.580590   2 C  px        
 
 Vector   29  Occ=0.000000D+00  E= 4.329388D-02
              MO Center=  1.4D-02, -2.2D-01,  3.1D-07, r^2= 1.3D+01
   Bfn.  Coefficient  Atom+Function         Bfn.  Coefficient  Atom+Function  
  ----- ------------  ---------------      ----- ------------  ---------------
   155      0.598811   4 C  pz               63      0.576489   2 C  pz        
   247      0.576448   6 C  pz               17     -0.260423   1 C  pz        
    51      0.155331   2 C  s                60     -0.154865   2 C  pz        
   235     -0.155346   6 C  s               244     -0.154887   6 C  pz        
   289     -0.123508   7 H  pz              381     -0.123506  11 H  pz        
 
 Vector   30  Occ=0.000000D+00  E= 5.496350D-02
              MO Center=  9.4D-03, -1.5D-01,  1.1D-05, r^2= 1.5D+01
   Bfn.  Coefficient  Atom+Function         Bfn.  Coefficient  Atom+Function  
  ----- ------------  ---------------      ----- ------------  ---------------
     5     10.711089   1 C  s               143      5.282579   4 C  s         
    51     -4.488992   2 C  s               235     -4.488935   6 C  s         
   303     -2.801338   8 H  s               349     -2.801274  10 H  s         
   326      2.060726   9 H  s               199      2.006736   5 C  px        
    97     -1.952085   3 C  s               189     -1.951983   5 C  s         
 
 Vector   31  Occ=0.000000D+00  E= 6.334725D-02
              MO Center= -4.1D-02,  6.5D-01,  4.1D-05, r^2= 2.8D+01
   Bfn.  Coefficient  Atom+Function         Bfn.  Coefficient  Atom+Function  
  ----- ------------  ---------------      ----- ------------  ---------------
     5     24.364542   1 C  s                51     -9.846343   2 C  s         
   235     -9.846215   6 C  s               143      7.614120   4 C  s         
    97     -6.507817   3 C  s               189     -6.507800   5 C  s         
   326      5.861285   9 H  s               154      4.767904   4 C  py        
   303     -4.679522   8 H  s               349     -4.679685  10 H  s         
 
 Vector   32  Occ=0.000000D+00  E= 6.574865D-02
              MO Center=  1.6D-03, -2.4D-02,  8.0D-06, r^2= 1.8D+01
   Bfn.  Coefficient  Atom+Function         Bfn.  Coefficient  Atom+Function  
  ----- ------------  ---------------      ----- ------------  ---------------
   109      0.976224   3 C  pz              201     -0.976226   5 C  pz        
     5      0.773819   1 C  s                63      0.769913   2 C  pz        
   247     -0.769865   6 C  pz              169     -0.676569   4 C  d  1      
    31     -0.583192   1 C  d  1            106      0.492099   3 C  pz        
   198     -0.492123   5 C  pz               60      0.488208   2 C  pz        
 
 Vector   33  Occ=0.000000D+00  E= 6.826292D-02
              MO Center= -1.2D-02,  1.9D-01, -4.9D-06, r^2= 1.8D+01
   Bfn.  Coefficient  Atom+Function         Bfn.  Coefficient  Atom+Function  
  ----- ------------  ---------------      ----- ------------  ---------------
    63      1.024286   2 C  pz              247      1.024256   6 C  pz        
   109     -0.811947   3 C  pz              201     -0.811835   5 C  pz        
   155     -0.750693   4 C  pz               14      0.629589   1 C  pz        
   152     -0.617673   4 C  pz               17      0.458649   1 C  pz        
   213     -0.449527   5 C  d -1            121     -0.405699   3 C  d -1      
 
 Vector   34  Occ=0.000000D+00  E= 7.645688D-02
              MO Center=  9.2D-03, -1.6D-01, -3.8D-06, r^2= 3.4D+01
   Bfn.  Coefficient  Atom+Function         Bfn.  Coefficient  Atom+Function  
  ----- ------------  ---------------      ----- ------------  ---------------
    51     13.864688   2 C  s               235    -13.867215   6 C  s         
    97     12.411333   3 C  s               189    -12.412106   5 C  s         
    15      7.678579   1 C  px              153      7.709474   4 C  px        
   107      4.764783   3 C  px              303      4.691931   8 H  s         
   349     -4.691230  10 H  s               199      4.461908   5 C  px        
 
 Vector   35  Occ=0.000000D+00  E= 7.792187D-02
              MO Center=  2.1D-01, -3.3D+00,  7.5D-06, r^2= 2.1D+01
   Bfn.  Coefficient  Atom+Function         Bfn.  Coefficient  Atom+Function  
  ----- ------------  ---------------      ----- ------------  ---------------
   143     18.275853   4 C  s                51    -13.448070   2 C  s         
   235    -13.443154   6 C  s               326      7.027062   9 H  s         
    62      5.654302   2 C  py              246      5.678133   6 C  py        
   200      5.395022   5 C  py              154      5.274444   4 C  py        
   108      5.038035   3 C  py              279      4.190482   7 H  s         
 
 Vector   36  Occ=0.000000D+00  E= 8.155257D-02
              MO Center= -8.8D-02,  1.4D+00, -1.5D-06, r^2= 2.8D+01
   Bfn.  Coefficient  Atom+Function         Bfn.  Coefficient  Atom+Function  
  ----- ------------  ---------------      ----- ------------  ---------------
   143     20.709622   4 C  s                51     -8.944463   2 C  s         
   235     -8.946840   6 C  s               246      5.260226   6 C  py        
    62      5.166196   2 C  py              325     -4.965555   9 H  s         
   280     -4.563970   7 H  s               372     -4.564402  11 H  s         
   200      4.482850   5 C  py              326      4.498937   9 H  s         
 
 Vector   37  Occ=0.000000D+00  E= 8.317366D-02
              MO Center=  4.6D-02, -7.3D-01,  8.4D-07, r^2= 2.2D+01
   Bfn.  Coefficient  Atom+Function         Bfn.  Coefficient  Atom+Function  
  ----- ------------  ---------------      ----- ------------  ---------------
    97      4.941872   3 C  s               189     -4.942187   5 C  s         
    51     -3.129539   2 C  s               235      3.132053   6 C  s         
   108      2.795589   3 C  py              303      2.803893   8 H  s         
   349     -2.803920  10 H  s               200     -2.681757   5 C  py        
   153      2.603999   4 C  px               96      2.072096   3 C  s         
 
 Vector   38  Occ=0.000000D+00  E= 9.540180D-02
              MO Center= -5.5D-02,  8.8D-01, -4.6D-07, r^2= 3.1D+01
   Bfn.  Coefficient  Atom+Function         Bfn.  Coefficient  Atom+Function  
  ----- ------------  ---------------      ----- ------------  ---------------
    51     17.679781   2 C  s               235    -17.681481   6 C  s         
   280      7.217229   7 H  s               372     -7.217251  11 H  s         
    97     -6.907549   3 C  s               189      6.907802   5 C  s         
   108     -6.460466   3 C  py              303     -6.201615   8 H  s         
   349      6.201099  10 H  s               200      5.918192   5 C  py        
 
 Vector   39  Occ=0.000000D+00  E= 1.018006D-01
              MO Center= -7.1D-03,  1.1D-01, -2.6D-06, r^2= 1.9D+01
   Bfn.  Coefficient  Atom+Function         Bfn.  Coefficient  Atom+Function  
  ----- ------------  ---------------      ----- ------------  ---------------
    51     13.734470   2 C  s               235    -13.733523   6 C  s         
    97     10.883303   3 C  s               189    -10.883674   5 C  s         
    15     10.000152   1 C  px              153      9.716027   4 C  px        
   246     -6.096162   6 C  py              108     -6.023241   3 C  py        
   200      5.990036   5 C  py               62      5.909770   2 C  py        
 
 Vector   40  Occ=0.000000D+00  E= 1.064759D-01
              MO Center= -8.0D-03,  1.3D-01, -2.7D-06, r^2= 2.1D+01
   Bfn.  Coefficient  Atom+Function         Bfn.  Coefficient  Atom+Function  
  ----- ------------  ---------------      ----- ------------  ---------------
   143     18.276430   4 C  s                51     -9.938064   2 C  s         
   235     -9.938055   6 C  s                 5     -9.462527   1 C  s         
   107     -8.759097   3 C  px              199      7.977934   5 C  px        
   245     -7.043928   6 C  px              200      6.726856   5 C  py        
    61      6.488989   2 C  px              108      5.672163   3 C  py        
 
 Vector   41  Occ=0.000000D+00  E= 1.082038D-01
              MO Center= -1.0D-02,  1.6D-01,  2.4D-06, r^2= 2.2D+01
   Bfn.  Coefficient  Atom+Function         Bfn.  Coefficient  Atom+Function  
  ----- ------------  ---------------      ----- ------------  ---------------
    63      3.391590   2 C  pz              247     -3.391697   6 C  pz        
   109     -3.363056   3 C  pz              201      3.363421   5 C  pz        
    60      0.696842   2 C  pz              244     -0.696872   6 C  pz        
   106     -0.636796   3 C  pz              198      0.636877   5 C  pz        
    77     -0.380408   2 C  d  1            215      0.361325   5 C  d  1      
 
 Vector   42  Occ=0.000000D+00  E= 1.089659D-01
              MO Center=  3.0D-02, -4.7D-01, -2.4D-04, r^2= 2.1D+01
   Bfn.  Coefficient  Atom+Function         Bfn.  Coefficient  Atom+Function  
  ----- ------------  ---------------      ----- ------------  ---------------
   155      5.322129   4 C  pz              109     -3.443006   3 C  pz        
   201     -3.442783   5 C  pz               17      2.511296   1 C  pz        
   152      0.983560   4 C  pz              106     -0.603327   3 C  pz        
   198     -0.603308   5 C  pz              167      0.569458   4 C  d -1      
    14      0.504713   1 C  pz               63     -0.475638   2 C  pz        
 
 Vector   43  Occ=0.000000D+00  E= 1.094994D-01
              MO Center=  2.9D-02, -4.5D-01,  1.3D-04, r^2= 2.7D+01
   Bfn.  Coefficient  Atom+Function         Bfn.  Coefficient  Atom+Function  
  ----- ------------  ---------------      ----- ------------  ---------------
   326      7.670150   9 H  s               154      7.057852   4 C  py        
   303     -6.475286   8 H  s               349     -6.475602  10 H  s         
   143     -5.609030   4 C  s               108     -4.431121   3 C  py        
   200     -4.185548   5 C  py               62     -4.157137   2 C  py        
   246     -4.137713   6 C  py                4      3.926398   1 C  s         
 
 Vector   44  Occ=0.000000D+00  E= 1.178170D-01
              MO Center= -4.1D-02,  6.5D-01,  1.4D-05, r^2= 1.4D+01
   Bfn.  Coefficient  Atom+Function         Bfn.  Coefficient  Atom+Function  
  ----- ------------  ---------------      ----- ------------  ---------------
    17      6.879823   1 C  pz               63     -6.023025   2 C  pz        
   247     -6.022853   6 C  pz              109      5.053128   3 C  pz        
   201      5.052945   5 C  pz              155     -4.823602   4 C  pz        
    14      1.235799   1 C  pz               60     -1.020536   2 C  pz        
   244     -1.020501   6 C  pz              106      0.892399   3 C  pz        
 
 Vector   45  Occ=0.000000D+00  E= 1.264074D-01
              MO Center= -1.8D-02,  2.9D-01,  7.7D-07, r^2= 2.5D+01
   Bfn.  Coefficient  Atom+Function         Bfn.  Coefficient  Atom+Function  
  ----- ------------  ---------------      ----- ------------  ---------------
    51      7.588902   2 C  s               235     -7.588804   6 C  s         
   107      7.204008   3 C  px              199      7.126891   5 C  px        
   245     -7.037187   6 C  px               61     -6.926837   2 C  px        
    15      6.443882   1 C  px               97     -6.194604   3 C  s         
   189      6.194704   5 C  s               153     -5.818705   4 C  px        
 
 Vector   46  Occ=0.000000D+00  E= 1.274499D-01
              MO Center= -1.2D-02,  1.9D-01,  2.2D-05, r^2= 2.6D+01
   Bfn.  Coefficient  Atom+Function         Bfn.  Coefficient  Atom+Function  
  ----- ------------  ---------------      ----- ------------  ---------------
   154     -8.032167   4 C  py               16      7.424977   1 C  py        
   108      6.889100   3 C  py               62     -6.576360   2 C  py        
   200      6.571240   5 C  py              246     -6.383463   6 C  py        
   326     -4.051487   9 H  s                 5      3.565211   1 C  s         
   303      3.164661   8 H  s               349      3.164992  10 H  s         
 
 Vector   47  Occ=0.000000D+00  E= 1.609548D-01
              MO Center= -8.5D-03,  1.4D-01, -3.5D-05, r^2= 1.7D+01
   Bfn.  Coefficient  Atom+Function         Bfn.  Coefficient  Atom+Function  
  ----- ------------  ---------------      ----- ------------  ---------------
    17      8.192809   1 C  pz               63     -8.004439   2 C  pz        
   247     -8.004553   6 C  pz              155     -7.856589   4 C  pz        
   109      7.771254   3 C  pz              201      7.771367   5 C  pz        
    60     -1.191942   2 C  pz              106      1.192802   3 C  pz        
   198      1.192837   5 C  pz              244     -1.191969   6 C  pz        
 
 Vector   48  Occ=0.000000D+00  E= 1.660208D-01
              MO Center= -8.9D-02,  1.4D+00,  1.0D-05, r^2= 2.2D+01
   Bfn.  Coefficient  Atom+Function         Bfn.  Coefficient  Atom+Function  
  ----- ------------  ---------------      ----- ------------  ---------------
     5     59.213597   1 C  s                51    -25.982918   2 C  s         
   143     25.963318   4 C  s               235    -25.983565   6 C  s         
    97    -14.417054   3 C  s               189    -14.416381   5 C  s         
   154      7.428787   4 C  py              245      6.814466   6 C  px        
    61     -6.399643   2 C  px              326      6.156394   9 H  s         
 
 Vector   49  Occ=0.000000D+00  E= 1.754229D-01
              MO Center=  2.5D-02, -3.9D-01,  9.4D-07, r^2= 1.1D+01
   Bfn.  Coefficient  Atom+Function         Bfn.  Coefficient  Atom+Function  
  ----- ------------  ---------------      ----- ------------  ---------------
   335      1.104562   9 H  pz              312      1.079205   8 H  pz        
   358      1.079153  10 H  pz              289      0.973154   7 H  pz        
   381      0.973110  11 H  pz               17      0.959614   1 C  pz        
    63     -0.885054   2 C  pz              247     -0.885024   6 C  pz        
   106     -0.843029   3 C  pz              198     -0.842972   5 C  pz        
 
 Vector   50  Occ=0.000000D+00  E= 1.864251D-01
              MO Center=  3.4D-02, -5.5D-01,  6.4D-07, r^2= 1.5D+01
   Bfn.  Coefficient  Atom+Function         Bfn.  Coefficient  Atom+Function  
  ----- ------------  ---------------      ----- ------------  ---------------
     5     15.508873   1 C  s                97     -7.273191   3 C  s         
   189     -7.272791   5 C  s                51     -4.473989   2 C  s         
   235     -4.473810   6 C  s               325      4.425679   9 H  s         
    62     -4.045339   2 C  py              154      3.980372   4 C  py        
   246     -3.823327   6 C  py              302      3.261359   8 H  s         
 
 Vector   51  Occ=0.000000D+00  E= 1.980421D-01
              MO Center= -3.0D-02,  4.7D-01,  1.1D-05, r^2= 2.3D+01
   Bfn.  Coefficient  Atom+Function         Bfn.  Coefficient  Atom+Function  
  ----- ------------  ---------------      ----- ------------  ---------------
    51     44.597668   2 C  s               235    -44.589864   6 C  s         
    97     25.202769   3 C  s               189    -25.204825   5 C  s         
    15     18.496311   1 C  px              153     17.066173   4 C  px        
   302    -14.011087   8 H  s               348     14.011797  10 H  s         
   200      9.225493   5 C  py              108     -8.510996   3 C  py        
 
 Vector   52  Occ=0.000000D+00  E= 1.984410D-01
              MO Center=  4.6D-02, -7.3D-01, -4.5D-05, r^2= 2.3D+01
   Bfn.  Coefficient  Atom+Function         Bfn.  Coefficient  Atom+Function  
  ----- ------------  ---------------      ----- ------------  ---------------
   143     61.320149   4 C  s                51    -34.529775   2 C  s         
   235    -34.539767   6 C  s               325    -16.863943   9 H  s         
    62     14.721143   2 C  py              246     14.449101   6 C  py        
   200     13.768982   5 C  py              108     12.558564   3 C  py        
     5    -11.578313   1 C  s               279     11.180327   7 H  s         
 
 Vector   53  Occ=0.000000D+00  E= 2.154374D-01
              MO Center=  8.8D-02, -1.4D+00, -9.2D-07, r^2= 1.5D+01
   Bfn.  Coefficient  Atom+Function         Bfn.  Coefficient  Atom+Function  
  ----- ------------  ---------------      ----- ------------  ---------------
    97     13.862652   3 C  s               189    -13.862164   5 C  s         
    96      6.547647   3 C  s               188     -6.547715   5 C  s         
   153      6.324330   4 C  px              279     -5.137732   7 H  s         
   371      5.137470  11 H  s               303      4.737003   8 H  s         
   349     -4.736745  10 H  s               246     -4.493827   6 C  py        
 
 Vector   54  Occ=0.000000D+00  E= 2.182735D-01
              MO Center=  1.8D-02, -2.8D-01,  7.4D-06, r^2= 1.5D+01
   Bfn.  Coefficient  Atom+Function         Bfn.  Coefficient  Atom+Function  
  ----- ------------  ---------------      ----- ------------  ---------------
   143     25.783391   4 C  s                51    -17.781012   2 C  s         
   235    -17.792501   6 C  s                 5     15.977177   1 C  s         
    16     -6.446800   1 C  py              325     -6.048701   9 H  s         
    62      4.839981   2 C  py              246      4.722655   6 C  py        
   279      3.739726   7 H  s               371      3.740327  11 H  s         
 
 Vector   55  Occ=0.000000D+00  E= 2.191120D-01
              MO Center=  5.4D-03, -8.4D-02,  7.8D-06, r^2= 1.5D+01
   Bfn.  Coefficient  Atom+Function         Bfn.  Coefficient  Atom+Function  
  ----- ------------  ---------------      ----- ------------  ---------------
    51     19.802743   2 C  s               235    -19.793397   6 C  s         
   108     -8.471336   3 C  py              200      8.113124   5 C  py        
    15      7.529574   1 C  px              302     -6.935420   8 H  s         
   348      6.935455  10 H  s               153      6.304348   4 C  px        
   246     -4.034747   6 C  py               62      3.898664   2 C  py        
 
 Vector   56  Occ=0.000000D+00  E= 2.301185D-01
              MO Center= -1.8D-02,  2.9D-01,  1.5D-05, r^2= 1.8D+01
   Bfn.  Coefficient  Atom+Function         Bfn.  Coefficient  Atom+Function  
  ----- ------------  ---------------      ----- ------------  ---------------
   199      4.913854   5 C  px              107      4.647760   3 C  px        
   153     -3.565309   4 C  px               50     -3.272486   2 C  s         
   234      3.272072   6 C  s               303      3.158798   8 H  s         
   349     -3.158146  10 H  s                15     -2.626071   1 C  px        
   108      2.423505   3 C  py               59      1.951879   2 C  py        
 
 Vector   57  Occ=0.000000D+00  E= 2.311976D-01
              MO Center= -5.5D-05,  1.0D-03, -2.5D-05, r^2= 1.6D+01
   Bfn.  Coefficient  Atom+Function         Bfn.  Coefficient  Atom+Function  
  ----- ------------  ---------------      ----- ------------  ---------------
   106      2.142542   3 C  pz              198     -2.142554   5 C  pz        
    60      2.046832   2 C  pz              244     -2.046789   6 C  pz        
   312     -1.818079   8 H  pz              358      1.818127  10 H  pz        
   289     -1.720340   7 H  pz              381      1.720298  11 H  pz        
   169     -1.379564   4 C  d  1             31     -1.246876   1 C  d  1      
 
 Vector   58  Occ=0.000000D+00  E= 2.354320D-01
              MO Center= -1.3D-02,  2.1D-01, -4.7D-06, r^2= 1.6D+01
   Bfn.  Coefficient  Atom+Function         Bfn.  Coefficient  Atom+Function  
  ----- ------------  ---------------      ----- ------------  ---------------
   143     14.933566   4 C  s                51    -10.475197   2 C  s         
   235    -10.465709   6 C  s               107     -8.189424   3 C  px        
   199      7.760501   5 C  px               61      5.430945   2 C  px        
   245     -5.309479   6 C  px              303     -4.418240   8 H  s         
   349     -4.419818  10 H  s                 5      4.070449   1 C  s         
 
 Vector   59  Occ=0.000000D+00  E= 2.365002D-01
              MO Center= -4.5D-03,  7.4D-02, -1.2D-05, r^2= 1.7D+01
   Bfn.  Coefficient  Atom+Function         Bfn.  Coefficient  Atom+Function  
  ----- ------------  ---------------      ----- ------------  ---------------
    97    -33.172906   3 C  s               189     33.173377   5 C  s         
    51     31.543942   2 C  s               235    -31.547859   6 C  s         
    96    -14.378829   3 C  s               188     14.378237   5 C  s         
   279     10.800771   7 H  s               371    -10.799749  11 H  s         
   302    -10.662167   8 H  s               348     10.661995  10 H  s         
 
 Vector   60  Occ=0.000000D+00  E= 2.434526D-01
              MO Center=  2.7D-03, -4.3D-02,  7.2D-05, r^2= 1.5D+01
   Bfn.  Coefficient  Atom+Function         Bfn.  Coefficient  Atom+Function  
  ----- ------------  ---------------      ----- ------------  ---------------
   152      3.413843   4 C  pz               14     -3.025870   1 C  pz        
   289      2.170885   7 H  pz              381      2.170898  11 H  pz        
   335     -2.124787   9 H  pz              261      2.001815   6 C  d  1      
    77     -1.987148   2 C  d  1             63     -1.598046   2 C  pz        
   247     -1.597974   6 C  pz              155      1.369902   4 C  pz        
 
 Vector   61  Occ=0.000000D+00  E= 2.594968D-01
              MO Center=  3.8D-02, -6.0D-01,  2.7D-05, r^2= 1.7D+01
   Bfn.  Coefficient  Atom+Function         Bfn.  Coefficient  Atom+Function  
  ----- ------------  ---------------      ----- ------------  ---------------
     5      8.703087   1 C  s               108     -6.642857   3 C  py        
   200     -6.053438   5 C  py              303     -5.177455   8 H  s         
   349     -5.177395  10 H  s               199      5.076281   5 C  px        
   197     -4.838578   5 C  py              143     -4.807830   4 C  s         
   105     -4.736685   3 C  py              154      4.354383   4 C  py        
 
 Vector   62  Occ=0.000000D+00  E= 2.620261D-01
              MO Center=  6.9D-02, -1.1D+00, -4.0D-06, r^2= 1.7D+01
   Bfn.  Coefficient  Atom+Function         Bfn.  Coefficient  Atom+Function  
  ----- ------------  ---------------      ----- ------------  ---------------
     5     18.964328   1 C  s               154     15.382148   4 C  py        
   143     15.152184   4 C  s                51    -14.562978   2 C  s         
   235    -14.564036   6 C  s               326      9.188432   9 H  s         
     4      6.019098   1 C  s               108     -4.779159   3 C  py        
    97     -4.661587   3 C  s               189     -4.660288   5 C  s         
 
 Vector   63  Occ=0.000000D+00  E= 2.676764D-01
              MO Center= -2.7D-02,  4.3D-01, -2.8D-06, r^2= 2.0D+01
   Bfn.  Coefficient  Atom+Function         Bfn.  Coefficient  Atom+Function  
  ----- ------------  ---------------      ----- ------------  ---------------
    51     20.194002   2 C  s               235    -20.193854   6 C  s         
    97    -11.909987   3 C  s               189     11.910328   5 C  s         
    61     11.014309   2 C  px              245     10.263377   6 C  px        
    96     -8.751053   3 C  s               188      8.751211   5 C  s         
   279      8.765972   7 H  s               371     -8.766207  11 H  s         
 
 Vector   64  Occ=0.000000D+00  E= 2.747986D-01
              MO Center= -1.5D-03,  2.3D-02, -3.2D-06, r^2= 1.4D+01
   Bfn.  Coefficient  Atom+Function         Bfn.  Coefficient  Atom+Function  
  ----- ------------  ---------------      ----- ------------  ---------------
   143      8.950140   4 C  s                 5      8.703748   1 C  s         
   154      5.768137   4 C  py              279     -5.655164   7 H  s         
   371     -5.654755  11 H  s               302     -4.649002   8 H  s         
   348     -4.648593  10 H  s               325     -4.357608   9 H  s         
    16     -4.033354   1 C  py              246      3.262578   6 C  py        
 
 Vector   65  Occ=0.000000D+00  E= 2.829806D-01
              MO Center= -1.2D-02,  1.8D-01, -2.4D-06, r^2= 1.6D+01
   Bfn.  Coefficient  Atom+Function         Bfn.  Coefficient  Atom+Function  
  ----- ------------  ---------------      ----- ------------  ---------------
    12      9.528404   1 C  px               97      8.896394   3 C  s         
   189     -8.896427   5 C  s               302      8.101771   8 H  s         
   348     -8.101371  10 H  s                51     -8.022646   2 C  s         
   235      8.022133   6 C  s               199      7.632844   5 C  px        
   107      7.160697   3 C  px              150      6.193461   4 C  px        
 
 Vector   66  Occ=0.000000D+00  E= 2.954375D-01
              MO Center= -3.3D-03,  5.2D-02,  2.2D-06, r^2= 1.6D+01
   Bfn.  Coefficient  Atom+Function         Bfn.  Coefficient  Atom+Function  
  ----- ------------  ---------------      ----- ------------  ---------------
    63      3.200742   2 C  pz              109     -3.188105   3 C  pz        
   201      3.187699   5 C  pz              247     -3.200515   6 C  pz        
   289     -2.279029   7 H  pz              381      2.279054  11 H  pz        
    60      2.256366   2 C  pz              244     -2.256380   6 C  pz        
   312      2.261335   8 H  pz              358     -2.261227  10 H  pz        
 
 Vector   67  Occ=0.000000D+00  E= 2.962824D-01
              MO Center= -6.0D-02,  9.6D-01, -9.2D-06, r^2= 1.4D+01
   Bfn.  Coefficient  Atom+Function         Bfn.  Coefficient  Atom+Function  
  ----- ------------  ---------------      ----- ------------  ---------------
     4     10.426863   1 C  s                59     -5.742086   2 C  py        
   243     -5.633324   6 C  py                5      5.530139   1 C  s         
   105     -5.528342   3 C  py              197     -5.139988   5 C  py        
    16      4.274811   1 C  py              279     -4.187065   7 H  s         
   371     -4.186811  11 H  s                13      3.914966   1 C  py        
 
 Vector   68  Occ=0.000000D+00  E= 3.080402D-01
              MO Center=  1.7D-02, -2.7D-01, -5.8D-06, r^2= 1.5D+01
   Bfn.  Coefficient  Atom+Function         Bfn.  Coefficient  Atom+Function  
  ----- ------------  ---------------      ----- ------------  ---------------
   155      5.178158   4 C  pz               14      4.363391   1 C  pz        
   109     -3.739465   3 C  pz              201     -3.739610   5 C  pz        
   335     -2.710449   9 H  pz               60     -2.049533   2 C  pz        
   244     -2.049424   6 C  pz              152      1.852553   4 C  pz        
    17      1.841689   1 C  pz               29     -1.719327   1 C  d -1      
 
 Vector   69  Occ=0.000000D+00  E= 3.150472D-01
              MO Center=  4.7D-03, -7.4D-02, -1.2D-06, r^2= 9.1D+00
   Bfn.  Coefficient  Atom+Function         Bfn.  Coefficient  Atom+Function  
  ----- ------------  ---------------      ----- ------------  ---------------
   261      1.253037   6 C  d  1             77      1.133289   2 C  d  1      
   169     -1.083422   4 C  d  1             75     -1.023971   2 C  d -1      
   259      0.873678   6 C  d -1            289     -0.720910   7 H  pz        
   381      0.720911  11 H  pz               31      0.635126   1 C  d  1      
    60     -0.336565   2 C  pz              244      0.336776   6 C  pz        
 
 Vector   70  Occ=0.000000D+00  E= 3.284740D-01
              MO Center=  3.9D-02, -6.2D-01, -4.1D-05, r^2= 1.5D+01
   Bfn.  Coefficient  Atom+Function         Bfn.  Coefficient  Atom+Function  
  ----- ------------  ---------------      ----- ------------  ---------------
   142     12.142126   4 C  s                96      8.717663   3 C  s         
   188      8.717816   5 C  s               151     -6.839108   4 C  py        
   325     -5.845730   9 H  s                 4     -5.239717   1 C  s         
   334     -5.006545   9 H  py                5      4.908340   1 C  s         
   302     -4.388435   8 H  s               348     -4.387844  10 H  s         
 
 Vector   71  Occ=0.000000D+00  E= 3.347556D-01
              MO Center= -1.6D-03,  2.5D-02,  2.4D-05, r^2= 7.7D+00
   Bfn.  Coefficient  Atom+Function         Bfn.  Coefficient  Atom+Function  
  ----- ------------  ---------------      ----- ------------  ---------------
   289      2.029400   7 H  pz              381      2.029548  11 H  pz        
   335      1.839015   9 H  pz               14     -1.772933   1 C  pz        
   155     -1.702349   4 C  pz               63     -1.544717   2 C  pz        
   247     -1.544733   6 C  pz               77     -1.512227   2 C  d  1      
   261      1.412103   6 C  d  1            106     -1.285609   3 C  pz        
 
 Vector   72  Occ=0.000000D+00  E= 3.433134D-01
              MO Center=  2.4D-02, -3.9D-01,  3.4D-06, r^2= 1.2D+01
   Bfn.  Coefficient  Atom+Function         Bfn.  Coefficient  Atom+Function  
  ----- ------------  ---------------      ----- ------------  ---------------
   169      3.291066   4 C  d  1             31      2.699679   1 C  d  1      
   312     -2.478285   8 H  pz              358      2.477955  10 H  pz        
   123      2.182570   3 C  d  1            215      2.142059   5 C  d  1      
   106     -1.795906   3 C  pz              198      1.796018   5 C  pz        
   289     -1.426926   7 H  pz              381      1.426777  11 H  pz        
 
 Vector   73  Occ=0.000000D+00  E= 3.449280D-01
              MO Center= -3.5D-02,  5.6D-01,  8.5D-05, r^2= 1.2D+01
   Bfn.  Coefficient  Atom+Function         Bfn.  Coefficient  Atom+Function  
  ----- ------------  ---------------      ----- ------------  ---------------
   143     23.689215   4 C  s               325    -13.007014   9 H  s         
   279     11.887198   7 H  s               371     11.890404  11 H  s         
    51    -11.758100   2 C  s               235    -11.766040   6 C  s         
     5     -7.650256   1 C  s               197     -6.898732   5 C  py        
   105     -6.778139   3 C  py              243     -6.016782   6 C  py        
 
 Vector   74  Occ=0.000000D+00  E= 3.478218D-01
              MO Center=  1.0D-02, -1.6D-01, -1.2D-05, r^2= 1.2D+01
   Bfn.  Coefficient  Atom+Function         Bfn.  Coefficient  Atom+Function  
  ----- ------------  ---------------      ----- ------------  ---------------
    51     20.952223   2 C  s               235    -20.947191   6 C  s         
   302    -11.859175   8 H  s               348     11.860991  10 H  s         
    97     10.841556   3 C  s               189    -10.843448   5 C  s         
   279     -9.662820   7 H  s               371      9.657691  11 H  s         
    12     -8.006980   1 C  px              150     -6.957596   4 C  px        
 
 Vector   75  Occ=0.000000D+00  E= 3.481733D-01
              MO Center=  3.2D-02, -5.2D-01, -1.4D-04, r^2= 1.3D+01
   Bfn.  Coefficient  Atom+Function         Bfn.  Coefficient  Atom+Function  
  ----- ------------  ---------------      ----- ------------  ---------------
   155     -3.934797   4 C  pz               17      3.745948   1 C  pz        
   109      3.527939   3 C  pz              201      3.528010   5 C  pz        
    63     -3.418214   2 C  pz              247     -3.418290   6 C  pz        
   235     -3.071476   6 C  s                51      3.055195   2 C  s         
   152     -2.970768   4 C  pz              213     -2.286165   5 C  d -1      
 
 Vector   76  Occ=0.000000D+00  E= 3.527400D-01
              MO Center=  3.3D-02, -5.3D-01, -2.4D-04, r^2= 1.4D+01
   Bfn.  Coefficient  Atom+Function         Bfn.  Coefficient  Atom+Function  
  ----- ------------  ---------------      ----- ------------  ---------------
    17      6.393860   1 C  pz               63     -5.862286   2 C  pz        
   247     -5.862329   6 C  pz              109      5.128710   3 C  pz        
   201      5.128716   5 C  pz              155     -4.855880   4 C  pz        
   335      3.961863   9 H  pz               14      3.795356   1 C  pz        
   167      3.078759   4 C  d -1             60     -2.684068   2 C  pz        
 
 Vector   77  Occ=0.000000D+00  E= 3.546341D-01
              MO Center= -2.0D-02,  3.2D-01,  2.6D-04, r^2= 1.5D+01
   Bfn.  Coefficient  Atom+Function         Bfn.  Coefficient  Atom+Function  
  ----- ------------  ---------------      ----- ------------  ---------------
     5     31.361033   1 C  s               143     15.882670   4 C  s         
    51    -15.740228   2 C  s               235    -15.737981   6 C  s         
   151    -11.076175   4 C  py              196     -7.596328   5 C  px        
    50      7.385145   2 C  s               234      7.384960   6 C  s         
    13      7.277165   1 C  py              104      7.155481   3 C  px        
 
 Vector   78  Occ=0.000000D+00  E= 3.599066D-01
              MO Center= -4.7D-02,  7.5D-01,  1.1D-05, r^2= 1.3D+01
   Bfn.  Coefficient  Atom+Function         Bfn.  Coefficient  Atom+Function  
  ----- ------------  ---------------      ----- ------------  ---------------
   289      3.405907   7 H  pz              381     -3.405991  11 H  pz        
    60      3.157627   2 C  pz              244     -3.157658   6 C  pz        
    77     -3.083232   2 C  d  1            121     -3.088249   3 C  d -1      
   259      3.025797   6 C  d -1            213      2.786884   5 C  d -1      
   312     -2.763433   8 H  pz              358      2.763298  10 H  pz        
 
 Vector   79  Occ=0.000000D+00  E= 3.685610D-01
              MO Center=  3.6D-02, -5.7D-01, -4.7D-06, r^2= 1.3D+01
   Bfn.  Coefficient  Atom+Function         Bfn.  Coefficient  Atom+Function  
  ----- ------------  ---------------      ----- ------------  ---------------
    96     10.731060   3 C  s               188     10.729922   5 C  s         
   104     -8.499834   3 C  px              196      8.490291   5 C  px        
   142     -7.535877   4 C  s                 5      7.222378   1 C  s         
   212      5.398217   5 C  d -2            258      5.320107   6 C  d -2      
   120     -5.227052   3 C  d -2            242     -5.090161   6 C  px        
 
 Vector   80  Occ=0.000000D+00  E= 3.720976D-01
              MO Center=  2.0D-02, -3.1D-01,  6.7D-06, r^2= 1.3D+01
   Bfn.  Coefficient  Atom+Function         Bfn.  Coefficient  Atom+Function  
  ----- ------------  ---------------      ----- ------------  ---------------
    97      9.834680   3 C  s               189     -9.833502   5 C  s         
    50      9.030358   2 C  s               234     -9.029907   6 C  s         
   279     -5.479351   7 H  s               371      5.481726  11 H  s         
   357      5.246291  10 H  py              311     -5.125037   8 H  py        
   212     -4.881988   5 C  d -2             51     -4.811394   2 C  s         
 
 Vector   81  Occ=0.000000D+00  E= 3.819130D-01
              MO Center=  3.6D-02, -5.7D-01,  8.7D-06, r^2= 1.6D+01
   Bfn.  Coefficient  Atom+Function         Bfn.  Coefficient  Atom+Function  
  ----- ------------  ---------------      ----- ------------  ---------------
   166      9.080427   4 C  d -2            333      7.118065   9 H  px        
   150     -6.662645   4 C  px              216     -6.555414   5 C  d  2      
   124      6.100187   3 C  d  2            279      5.868704   7 H  s         
   371     -5.868961  11 H  s               310      5.085465   8 H  px        
   356      5.022256  10 H  px               96     -4.807394   3 C  s         
 
 Vector   82  Occ=0.000000D+00  E= 3.932665D-01
              MO Center= -2.9D-02,  4.6D-01, -4.4D-06, r^2= 1.5D+01
   Bfn.  Coefficient  Atom+Function         Bfn.  Coefficient  Atom+Function  
  ----- ------------  ---------------      ----- ------------  ---------------
    12     12.181137   1 C  px               51    -11.054317   2 C  s         
   235     11.055851   6 C  s                78     -9.086369   2 C  d  2      
   262      8.757609   6 C  d  2             15     -6.830328   1 C  px        
   216      6.675492   5 C  d  2            153     -5.863422   4 C  px        
   124     -5.832844   3 C  d  2            379     -5.816558  11 H  px        
 
 Vector   83  Occ=0.000000D+00  E= 3.960258D-01
              MO Center= -5.2D-02,  8.3D-01,  8.9D-05, r^2= 1.2D+01
   Bfn.  Coefficient  Atom+Function         Bfn.  Coefficient  Atom+Function  
  ----- ------------  ---------------      ----- ------------  ---------------
   152     -7.531543   4 C  pz              106      7.336401   3 C  pz        
   198      7.336573   5 C  pz               60     -6.479974   2 C  pz        
   244     -6.480056   6 C  pz              167     -6.333824   4 C  d -1      
   215      5.118178   5 C  d  1            123     -4.711923   3 C  d  1      
    14      4.573285   1 C  pz              259      4.026246   6 C  d -1      
 
 Vector   84  Occ=0.000000D+00  E= 4.017338D-01
              MO Center= -3.3D-02,  5.2D-01, -9.6D-05, r^2= 1.5D+01
   Bfn.  Coefficient  Atom+Function         Bfn.  Coefficient  Atom+Function  
  ----- ------------  ---------------      ----- ------------  ---------------
     5     51.756298   1 C  s                51    -19.784597   2 C  s         
   235    -19.781107   6 C  s                97    -17.392063   3 C  s         
   189    -17.389562   5 C  s               143     11.668422   4 C  s         
   142    -10.270990   4 C  s                 4     -9.673885   1 C  s         
    50     -7.941555   2 C  s               234     -7.942314   6 C  s         
 
 Vector   85  Occ=0.000000D+00  E= 4.053085D-01
              MO Center= -5.4D-03,  8.6D-02,  3.5D-06, r^2= 1.3D+01
   Bfn.  Coefficient  Atom+Function         Bfn.  Coefficient  Atom+Function  
  ----- ------------  ---------------      ----- ------------  ---------------
[...]
     Occ.   13 beta  a   ---  Virt.   21 beta  a    0.05599 X
     Occ.   15 beta  a   ---  Virt.   21 beta  a    0.10243 X
     Occ.   19 beta  a   ---  Virt.   24 beta  a    0.22092 X
     Occ.   19 beta  a   ---  Virt.   29 beta  a   -0.05001 X
     Occ.   20 beta  a   ---  Virt.   22 beta  a   -0.14462 X
  ----------------------------------------------------------------------------
  Root  27         a              0.251973146 a.u.                6.8565 eV 
  <S2> =   1.6619
  ----------------------------------------------------------------------------
     Transition Moments    X -0.00238   Y -0.00014   Z -0.24503
     Transition Moments   XX -0.00032  XY  0.00285  XZ  0.01065
     Transition Moments   YY  0.00035  YZ -0.16706  ZZ -0.00001
     Dipole Oscillator Strength                    0.0100864072
     Electric Quadrupole                           0.0000000024
     Magnetic Dipole                               0.0000000311
     Total Oscillator Strength                     0.0100864406
 
     Occ.   19 alpha a   ---  Virt.   26 alpha a   -0.98232 X
     Occ.   19 alpha a   ---  Virt.   35 alpha a    0.07115 X
     Occ.   19 alpha a   ---  Virt.   36 alpha a    0.07362 X
     Occ.   20 alpha a   ---  Virt.   25 alpha a   -0.11469 X
     Occ.   20 beta  a   ---  Virt.   26 beta  a   -0.05037 X
  ----------------------------------------------------------------------------
  Root  28         a              0.252620714 a.u.                6.8742 eV 
  <S2> =   1.8894
  ----------------------------------------------------------------------------
     Transition Moments    X  0.00016   Y -0.00258   Z  0.00006
     Transition Moments   XX -0.00245  XY  0.00044  XZ  0.39293
     Transition Moments   YY -0.00927  YZ  0.02479  ZZ  0.00002
     Dipole Oscillator Strength                    0.0000011248
     Electric Quadrupole                           0.0000000133
     Magnetic Dipole                               0.0000000096
     Total Oscillator Strength                     0.0000011477
 
     Occ.   19 alpha a   ---  Virt.   25 alpha a   -0.24743 X
     Occ.   20 alpha a   ---  Virt.   26 alpha a   -0.96035 X
     Occ.   20 alpha a   ---  Virt.   35 alpha a    0.06154 X
     Occ.   20 alpha a   ---  Virt.   36 alpha a    0.06546 X
     Occ.   19 beta  a   ---  Virt.   26 beta  a    0.06484 X
  ----------------------------------------------------------------------------
  Root  29         a              0.253986829 a.u.                6.9113 eV 
  <S2> =   1.6185
  ----------------------------------------------------------------------------
     Transition Moments    X  0.00003   Y -0.00015   Z -0.00000
     Transition Moments   XX  0.00217  XY  0.00005  XZ -0.49369
     Transition Moments   YY  0.00140  YZ -0.03112  ZZ -0.00106
     Dipole Oscillator Strength                    0.0000000038
     Electric Quadrupole                           0.0000000214
     Magnetic Dipole                               0.0000000109
     Total Oscillator Strength                     0.0000000361
 
     Occ.   20 alpha a   ---  Virt.   26 alpha a    0.06943 X
     Occ.   19 beta  a   ---  Virt.   26 beta  a    0.98516 X
     Occ.   19 beta  a   ---  Virt.   35 beta  a   -0.05784 X
     Occ.   19 beta  a   ---  Virt.   36 beta  a   -0.07402 X
     Occ.   20 beta  a   ---  Virt.   25 beta  a    0.09686 X
  ----------------------------------------------------------------------------
  Root  30         a              0.254756149 a.u.                6.9323 eV 
  <S2> =   0.7707
  ----------------------------------------------------------------------------
     Transition Moments    X -1.50325   Y -0.09503   Z  0.00012
     Transition Moments   XX -0.02428  XY  0.18985  XZ  0.00026
     Transition Moments   YY  0.02354  YZ -0.00418  ZZ -0.00006
     Dipole Oscillator Strength                    0.3853274901
     Electric Quadrupole                           0.0000000032
     Magnetic Dipole                               0.0000000195
     Total Oscillator Strength                     0.3853275128
 
     Occ.   19 alpha a   ---  Virt.   22 alpha a   -0.38007 X
     Occ.   19 alpha a   ---  Virt.   22 alpha a    0.05311 Y
     Occ.   20 alpha a   ---  Virt.   23 alpha a    0.42682 X
     Occ.   20 alpha a   ---  Virt.   23 alpha a   -0.05109 Y
     Occ.   20 alpha a   ---  Virt.   29 alpha a   -0.14083 X
     Occ.   21 alpha a   ---  Virt.   25 alpha a    0.07643 X
     Occ.   21 alpha a   ---  Virt.   27 alpha a   -0.38968 X
     Occ.   13 beta  a   ---  Virt.   21 beta  a    0.12800 X
     Occ.   15 beta  a   ---  Virt.   21 beta  a    0.27044 X
     Occ.   19 beta  a   ---  Virt.   24 beta  a    0.49859 X
     Occ.   19 beta  a   ---  Virt.   29 beta  a   -0.13914 X
     Occ.   20 beta  a   ---  Virt.   22 beta  a   -0.34836 X
     Occ.   20 beta  a   ---  Virt.   22 beta  a    0.05611 Y
  ----------------------------------------------------------------------------
  Root  31         a              0.255406195 a.u.                6.9500 eV 
  <S2> =   0.8012
  ----------------------------------------------------------------------------
     Transition Moments    X  0.04058   Y -0.63636   Z -0.00001
     Transition Moments   XX -0.65024  XY  0.07812  XZ  0.00011
     Transition Moments   YY -1.88570  YZ -0.00000  ZZ -0.14658
     Dipole Oscillator Strength                    0.0692324353
     Electric Quadrupole                           0.0000000716
     Magnetic Dipole                               0.0000000000
     Total Oscillator Strength                     0.0692325069
 
     Occ.   19 alpha a   ---  Virt.   23 alpha a    0.10550 X
     Occ.   20 alpha a   ---  Virt.   22 alpha a    0.11463 X
     Occ.   21 alpha a   ---  Virt.   26 alpha a    0.18451 X
     Occ.   21 alpha a   ---  Virt.   28 alpha a   -0.90984 X
     Occ.   21 alpha a   ---  Virt.   30 alpha a   -0.12847 X
     Occ.   21 alpha a   ---  Virt.   31 alpha a   -0.16271 X
     Occ.   21 alpha a   ---  Virt.   48 alpha a    0.05657 X
     Occ.   16 beta  a   ---  Virt.   21 beta  a    0.18861 X
     Occ.   19 beta  a   ---  Virt.   22 beta  a    0.10932 X
     Occ.   20 beta  a   ---  Virt.   24 beta  a    0.09639 X
  ----------------------------------------------------------------------------
  Root  32         a              0.260753079 a.u.                7.0955 eV 
  <S2> =   0.8001
  ----------------------------------------------------------------------------
     Transition Moments    X  0.00462   Y  0.00030   Z -0.09559
     Transition Moments   XX  0.00019  XY -0.00147  XZ  0.04441
     Transition Moments   YY -0.00018  YZ -0.70492  ZZ  0.00000
     Dipole Oscillator Strength                    0.0015922379
     Electric Quadrupole                           0.0000000471
     Magnetic Dipole                               0.0000000330
     Total Oscillator Strength                     0.0015923180
 
     Occ.   21 alpha a   ---  Virt.   29 alpha a    0.97947 X
     Occ.   21 alpha a   ---  Virt.   33 alpha a    0.17996 X
  ----------------------------------------------------------------------------
  Root  33         a              0.265399873 a.u.                7.2219 eV 
  <S2> =   1.7804
  ----------------------------------------------------------------------------
     Transition Moments    X -0.00104   Y  0.01654   Z  0.00000
     Transition Moments   XX -0.00350  XY  0.00037  XZ  0.54577
     Transition Moments   YY -0.00902  YZ  0.03438  ZZ -0.00130
     Dipole Oscillator Strength                    0.0000485780
     Electric Quadrupole                           0.0000000298
     Magnetic Dipole                               0.0000000005
     Total Oscillator Strength                     0.0000486083
 
     Occ.   20 beta  a   ---  Virt.   27 beta  a    0.99093 X
     Occ.   20 beta  a   ---  Virt.   38 beta  a   -0.09648 X
  ----------------------------------------------------------------------------
  Root  34         a              0.267189630 a.u.                7.2706 eV 
  <S2> =   0.8219
  ----------------------------------------------------------------------------
     Transition Moments    X  0.07576   Y -1.20067   Z -0.00000
     Transition Moments   XX  0.01903  XY -0.04277  XZ  0.00430
     Transition Moments   YY  0.69487  YZ  0.00027  ZZ  0.04603
     Dipole Oscillator Strength                    0.2578126712
     Electric Quadrupole                           0.0000000151
     Magnetic Dipole                               0.0000000000
     Total Oscillator Strength                     0.2578126863
 
     Occ.   17 alpha a   ---  Virt.   23 alpha a   -0.08607 X
     Occ.   19 alpha a   ---  Virt.   23 alpha a    0.30513 X
     Occ.   19 alpha a   ---  Virt.   29 alpha a    0.16160 X
     Occ.   20 alpha a   ---  Virt.   22 alpha a    0.22281 X
     Occ.   21 alpha a   ---  Virt.   28 alpha a    0.30119 X
     Occ.   21 alpha a   ---  Virt.   30 alpha a   -0.42758 X
     Occ.   21 alpha a   ---  Virt.   31 alpha a    0.08025 X
     Occ.   14 beta  a   ---  Virt.   21 beta  a   -0.08798 X
     Occ.   16 beta  a   ---  Virt.   21 beta  a    0.50152 X
     Occ.   19 beta  a   ---  Virt.   22 beta  a    0.22348 X
     Occ.   20 beta  a   ---  Virt.   24 beta  a    0.30738 X
     Occ.   20 beta  a   ---  Virt.   29 beta  a    0.34418 X
  ----------------------------------------------------------------------------
  Root  35         a              0.270807621 a.u.                7.3691 eV 
  <S2> =   2.7047
  ----------------------------------------------------------------------------
     Transition Moments    X -0.00119   Y -0.00007   Z -0.00954
     Transition Moments   XX -0.00004  XY  0.00028  XZ  0.00959
     Transition Moments   YY  0.00004  YZ -0.15163  ZZ -0.00000
     Dipole Oscillator Strength                    0.0000166815
     Electric Quadrupole                           0.0000000024
     Magnetic Dipole                               0.0000000000
     Total Oscillator Strength                     0.0000166839
 
     Occ.   20 alpha a   ---  Virt.   27 alpha a    0.79657 X
     Occ.   20 alpha a   ---  Virt.   38 alpha a   -0.08792 X
     Occ.   19 beta  a   ---  Virt.   27 beta  a   -0.57667 X
     Occ.   19 beta  a   ---  Virt.   38 beta  a    0.06820 X
     Occ.   20 beta  a   ---  Virt.   28 beta  a   -0.05389 X
     Occ.   20 beta  a   ---  Virt.   30 beta  a   -0.06113 X
  ----------------------------------------------------------------------------
  Root  36         a              0.271250816 a.u.                7.3811 eV 
  <S2> =   2.7407
  ----------------------------------------------------------------------------
     Transition Moments    X -0.04866   Y -0.00302   Z  0.00002
     Transition Moments   XX -0.00377  XY  0.02858  XZ -0.00014
     Transition Moments   YY  0.00374  YZ  0.00211  ZZ -0.00004
     Dipole Oscillator Strength                    0.0004298458
     Electric Quadrupole                           0.0000000001
     Magnetic Dipole                               0.0000000018
     Total Oscillator Strength                     0.0004298478
 
     Occ.   17 alpha a   ---  Virt.   22 alpha a   -0.59729 X
     Occ.   17 alpha a   ---  Virt.   41 alpha a    0.05236 X
     Occ.   19 alpha a   ---  Virt.   32 alpha a    0.08374 X
     Occ.   20 alpha a   ---  Virt.   29 alpha a   -0.16407 X
     Occ.   20 alpha a   ---  Virt.   44 alpha a    0.22712 X
     Occ.   20 alpha a   ---  Virt.   47 alpha a   -0.17394 X
     Occ.   17 beta  a   ---  Virt.   22 beta  a    0.64399 X
     Occ.   17 beta  a   ---  Virt.   41 beta  a   -0.05428 X
     Occ.   19 beta  a   ---  Virt.   29 beta  a    0.10192 X
     Occ.   19 beta  a   ---  Virt.   44 beta  a   -0.20048 X
     Occ.   19 beta  a   ---  Virt.   47 beta  a    0.16649 X
     Occ.   20 beta  a   ---  Virt.   31 beta  a    0.10121 X
  ----------------------------------------------------------------------------
  Root  37         a              0.271756288 a.u.                7.3949 eV 
  <S2> =   1.0521
  ----------------------------------------------------------------------------
     Transition Moments    X  0.03229   Y -0.51213   Z  0.00000
     Transition Moments   XX  1.05198  XY  0.11434  XZ  0.00045
     Transition Moments   YY -0.75539  YZ  0.00016  ZZ  0.23972
     Dipole Oscillator Strength                    0.0477062076
     Electric Quadrupole                           0.0000000890
     Magnetic Dipole                               0.0000000000
     Total Oscillator Strength                     0.0477062966
 
     Occ.   17 alpha a   ---  Virt.   23 alpha a   -0.06248 X
     Occ.   19 alpha a   ---  Virt.   23 alpha a    0.09107 X
     Occ.   21 alpha a   ---  Virt.   30 alpha a    0.79732 X
     Occ.   21 alpha a   ---  Virt.   31 alpha a   -0.20546 X
     Occ.   21 alpha a   ---  Virt.   35 alpha a    0.07435 X
     Occ.   21 alpha a   ---  Virt.   40 alpha a   -0.05669 X
     Occ.   14 beta  a   ---  Virt.   21 beta  a   -0.06320 X
     Occ.   16 beta  a   ---  Virt.   21 beta  a    0.18845 X
     Occ.   19 beta  a   ---  Virt.   22 beta  a    0.05843 X
     Occ.   20 beta  a   ---  Virt.   24 beta  a    0.09584 X
     Occ.   20 beta  a   ---  Virt.   29 beta  a    0.48482 X
  ----------------------------------------------------------------------------
  Root  38         a              0.271806769 a.u.                7.3962 eV 
  <S2> =   0.8293
  ----------------------------------------------------------------------------
     Transition Moments    X  0.00082   Y  0.00014   Z  0.02487
     Transition Moments   XX -0.00032  XY  0.00104  XZ -0.05508
     Transition Moments   YY  0.00025  YZ  0.87249  ZZ -0.00005
     Dipole Oscillator Strength                    0.0001122126
     Electric Quadrupole                           0.0000000817
     Magnetic Dipole                               0.0000000038
     Total Oscillator Strength                     0.0001122981
 
     Occ.   20 alpha a   ---  Virt.   27 alpha a   -0.57382 X
     Occ.   19 beta  a   ---  Virt.   27 beta  a   -0.80050 X
     Occ.   19 beta  a   ---  Virt.   38 beta  a    0.07510 X
     Occ.   20 beta  a   ---  Virt.   28 beta  a    0.12802 X
  ----------------------------------------------------------------------------
  Root  39         a              0.272284613 a.u.                7.4092 eV 
  <S2> =   1.7262
  ----------------------------------------------------------------------------
     Transition Moments    X -0.00018   Y  0.00284   Z -0.00002
     Transition Moments   XX  0.00050  XY  0.00010  XZ -0.54900
     Transition Moments   YY -0.00128  YZ -0.03488  ZZ -0.00014
     Dipole Oscillator Strength                    0.0000014652
     Electric Quadrupole                           0.0000000325
     Magnetic Dipole                               0.0000000013
     Total Oscillator Strength                     0.0000014990
 
     Occ.   19 alpha a   ---  Virt.   27 alpha a   -0.99019 X
     Occ.   19 alpha a   ---  Virt.   38 alpha a    0.09592 X
  ----------------------------------------------------------------------------
  Root  40         a              0.272509360 a.u.                7.4154 eV 
  <S2> =   1.9620
  ----------------------------------------------------------------------------
     Transition Moments    X  0.00177   Y  0.00014   Z -0.04148
     Transition Moments   XX -0.00013  XY  0.00048  XZ  0.02786
     Transition Moments   YY  0.00010  YZ -0.44036  ZZ -0.00001
     Dipole Oscillator Strength                    0.0003131983
     Electric Quadrupole                           0.0000000210
     Magnetic Dipole                               0.0000000053
     Total Oscillator Strength                     0.0003132245
 
     Occ.   19 alpha a   ---  Virt.   28 alpha a    0.11709 X
     Occ.   20 alpha a   ---  Virt.   27 alpha a   -0.12635 X
     Occ.   17 beta  a   ---  Virt.   21 beta  a    0.05507 X
     Occ.   19 beta  a   ---  Virt.   27 beta  a   -0.06750 X
     Occ.   20 beta  a   ---  Virt.   28 beta  a   -0.96954 X
     Occ.   20 beta  a   ---  Virt.   30 beta  a   -0.05585 X
     Occ.   20 beta  a   ---  Virt.   32 beta  a   -0.07422 X
     Occ.   20 beta  a   ---  Virt.   43 beta  a   -0.08101 X
 
              Target root =      1
          Target symmetry = none
      Ground state energy =   -231.646326546847
        Excitation energy =      0.106293217013
     Excited state energy =   -231.540033329835
 
  stored tddft:energy   -231.540033329835     

 Task  times  cpu:     3893.9s     wall:     4034.9s
 
 
                                NWChem Input Module
                                -------------------
 
 
 Summary of allocated global arrays
-----------------------------------
  No active global arrays



                         GA Statistics for process    0
                         ------------------------------

       create   destroy   get      put      acc     scatter   gather  read&inc
calls: 9555     9555     1.04e+07 4.05e+06 3.58e+06 5660        0      306     
number of processes/call 1.31e+00 1.75e+00 1.95e+00 0.00e+00 0.00e+00
bytes total:             9.49e+10 1.09e+10 1.09e+11 6.26e+04 0.00e+00 2.45e+03
bytes remote:            7.11e+10 1.10e+09 1.04e+11 0.00e+00 0.00e+00 0.00e+00
Max memory consumed for GA by this process: 205086464 bytes
 
MA_summarize_allocated_blocks: starting scan ...
MA_summarize_allocated_blocks: scan completed: 0 heap blocks, 0 stack blocks
MA usage statistics:

	allocation statistics:
					      heap	     stack
					      ----	     -----
	current number of blocks	         0	         0
	maximum number of blocks	        20	        52
	current total bytes		         0	         0
	maximum total bytes		   1166000	  68276408
	maximum total K-bytes		      1166	     68277
	maximum total M-bytes		         2	        69
 
 
                                     CITATION
                                     --------
                Please cite the following reference when publishing
                           results obtained with NWChem:
 
                 M. Valiev, E.J. Bylaska, N. Govind, K. Kowalski,
              T.P. Straatsma, H.J.J. van Dam, D. Wang, J. Nieplocha,
                        E. Apra, T.L. Windus, W.A. de Jong
                 "NWChem: a comprehensive and scalable open-source
                  solution for large scale molecular simulations"
                      Comput. Phys. Commun. 181, 1477 (2010)
                           doi:10.1016/j.cpc.2010.04.018
 
                                      AUTHORS
                                      -------
          E. Apra, E. J. Bylaska, W. A. de Jong, N. Govind, K. Kowalski,
       T. P. Straatsma, M. Valiev, H. J. J. van Dam, D. Wang, T. L. Windus,
        J. Hammond, J. Autschbach, K. Bhaskaran-Nair, J. Brabec, K. Lopata,
    S. A. Fischer, S. Krishnamoorthy, M. Jacquelin, W. Ma, M. Klemm, O. Villa,
      Y. Chen, V. Anisimov, F. Aquino, S. Hirata, M. T. Hackler, V. Konjkov,
            D. Mejia-Rodriguez, T. Risthaus, M. Malagoli, A. Marenich,
   A. Otero-de-la-Roza, J. Mullin, P. Nichols, R. Peverati, J. Pittner, Y. Zhao,
        P.-D. Fan, A. Fonari, M. J. Williamson, R. J. Harrison, J. R. Rehr,
      M. Dupuis, D. Silverstein, D. M. A. Smith, J. Nieplocha, V. Tipparaju,
    M. Krishnan, B. E. Van Kuiken, A. Vazquez-Mayagoitia, L. Jensen, M. Swart,
      Q. Wu, T. Van Voorhis, A. A. Auer, M. Nooijen, L. D. Crosby, E. Brown,
      G. Cisneros, G. I. Fann, H. Fruchtl, J. Garza, K. Hirao, R. A. Kendall,
      J. A. Nichols, K. Tsemekhman, K. Wolinski, J. Anchell, D. E. Bernholdt,
      P. Borowski, T. Clark, D. Clerc, H. Dachsel, M. J. O. Deegan, K. Dyall,
    D. Elwood, E. Glendening, M. Gutowski, A. C. Hess, J. Jaffe, B. G. Johnson,
     J. Ju, R. Kobayashi, R. Kutteh, Z. Lin, R. Littlefield, X. Long, B. Meng,
      T. Nakajima, S. Niu, L. Pollack, M. Rosing, K. Glaesemann, G. Sandrone,
      M. Stave, H. Taylor, G. Thomas, J. H. van Lenthe, A. T. Wong, Z. Zhang.

 Total times  cpu:     3893.9s     wall:     4035.8s
