 argument  1 = /storage/home/j/jbb5516/normalModes/mode1006.59-p.nw
 


============================== echo of input deck ==============================
echo
start

title "None"

geometry
C    -0.08747224    1.38830409   -0.00001990
C    -1.26735482    0.69112092   -0.00015080
C    -1.16733630   -0.70470852    0.00045147
C     0.08291598   -1.31598916   -0.00058709
C     1.24655610   -0.55261762    0.00045136
C     1.17058620    0.84472727   -0.00015061
H    -2.23189055    1.18090100    0.00097763
H    -2.06748412   -1.30603725   -0.00263392
H     0.15092404   -2.39537432    0.00338001
H     2.21506130   -1.03620839   -0.00263323
H     2.06601969    1.45169726    0.00097666
symmetry c1
end

basis spherical
 * library "aug-cc-pvtz"
end

dft
 direct
 mult 2
 iterations 500
 xc b3lyp
end

tddft
 nroots 40
 notriplet
 algorithm 1
end
task tddft energy
================================================================================


                                         
                                         
 
 
              Northwest Computational Chemistry Package (NWChem) 6.8
              ------------------------------------------------------
 
 
                    Environmental Molecular Sciences Laboratory
                       Pacific Northwest National Laboratory
                                Richland, WA 99352
 
                              Copyright (c) 1994-2017
                       Pacific Northwest National Laboratory
                            Battelle Memorial Institute
 
             NWChem is an open-source computational chemistry package
                        distributed under the terms of the
                      Educational Community License (ECL) 2.0
             A copy of the license is included with this distribution
                              in the LICENSE.TXT file
 
                                  ACKNOWLEDGMENT
                                  --------------

            This software and its documentation were developed at the
            EMSL at Pacific Northwest National Laboratory, a multiprogram
            national laboratory, operated for the U.S. Department of Energy
            by Battelle under Contract Number DE-AC05-76RL01830. Support
            for this work was provided by the Department of Energy Office
            of Biological and Environmental Research, Office of Basic
            Energy Sciences, and the Office of Advanced Scientific Computing.


           Job information
           ---------------

    hostname        = comp-sc-0081.acib.production.int.aci.ics.psu.edu
    program         = /gpfs/group/lxj18/default/jeffprograms/nwchem-6.8.1/bin/LINUX64/nwchem
    date            = Sun Sep 20 13:54:42 2020

    compiled        = Wed_Oct_03_14:08:39_2018
    source          = /gpfs/group/lxj18/default/jeffprograms/nwchem-6.8.1
    nwchem branch   = 6.8.1
    nwchem revision = v6.8-143-gdb0d964
    ga revision     = 5.6.5
    use scalapack   = F
    input           = /storage/home/j/jbb5516/normalModes/mode1006.59-p.nw
    prefix          = mode1006.59-p.
    data base       = ./mode1006.59-p.db
    status          = startup
    nproc           =       20
    time left       =     -1s



           Memory information
           ------------------

    heap     =   13107198 doubles =    100.0 Mbytes
    stack    =   13107195 doubles =    100.0 Mbytes
    global   =   26214400 doubles =    200.0 Mbytes (distinct from heap & stack)
    total    =   52428793 doubles =    400.0 Mbytes
    verify   = yes
    hardfail = no 


           Directory information
           ---------------------
 
  0 permanent = .
  0 scratch   = .
 
 
 
 
                                NWChem Input Module
                                -------------------
 
 
                                       None
                                       ----

 Scaling coordinates for geometry "geometry" by  1.889725989
 (inverse scale =  0.529177249)

 Turning off AUTOSYM since
 SYMMETRY directive was detected!
 

          ------
          auto-z
          ------
 
 
                             Geometry "geometry" -> ""
                             -------------------------
 
 Output coordinates in angstroms (scale by  1.889725989 to convert to a.u.)
 
  No.       Tag          Charge          X              Y              Z
 ---- ---------------- ---------- -------------- -------------- --------------
    1 C                    6.0000    -0.08747224     1.38830409    -0.00002072
    2 C                    6.0000    -1.26735482     0.69112092    -0.00015162
    3 C                    6.0000    -1.16733630    -0.70470852     0.00045065
    4 C                    6.0000     0.08291598    -1.31598916    -0.00058791
    5 C                    6.0000     1.24655610    -0.55261762     0.00045054
    6 C                    6.0000     1.17058620     0.84472727    -0.00015143
    7 H                    1.0000    -2.23189055     1.18090100     0.00097681
    8 H                    1.0000    -2.06748412    -1.30603725    -0.00263474
    9 H                    1.0000     0.15092404    -2.39537432     0.00337919
   10 H                    1.0000     2.21506130    -1.03620839    -0.00263405
   11 H                    1.0000     2.06601969     1.45169726     0.00097584
 
      Atomic Mass 
      ----------- 
 
      C                 12.000000
      H                  1.007825
 

 Effective nuclear repulsion energy (a.u.)     195.0639432329

            Nuclear Dipole moment (a.u.) 
            ----------------------------
        X                 Y               Z
 ---------------- ---------------- ----------------
    -0.0000000000     0.0000000000    -0.0000000000
 


                                Z-matrix (autoz)
                                -------- 

 Units are Angstrom for bonds and degrees for angles
 
      Type          Name      I     J     K     L     M      Value
      ----------- --------  ----- ----- ----- ----- ----- ----------
    1 Stretch                  1     2                       1.37047
    2 Stretch                  1     6                       1.37047
    3 Stretch                  2     3                       1.39941
    4 Stretch                  2     7                       1.08176
    5 Stretch                  3     4                       1.39169
    6 Stretch                  3     8                       1.08253
    7 Stretch                  4     5                       1.39169
    8 Stretch                  4     9                       1.08153
    9 Stretch                  5     6                       1.39941
   10 Stretch                  5    10                       1.08253
   11 Stretch                  6    11                       1.08176
   12 Bend                     1     2     3               116.47996
   13 Bend                     1     2     7               122.50054
   14 Bend                     1     6     5               116.47996
   15 Bend                     1     6    11               122.50056
   16 Bend                     2     1     6               126.05349
   17 Bend                     2     3     4               120.15371
   18 Bend                     2     3     8               119.64549
   19 Bend                     3     2     7               121.01942
   20 Bend                     3     4     5               120.67905
   21 Bend                     3     4     9               119.66002
   22 Bend                     4     3     8               120.20027
   23 Bend                     4     5     6               120.15370
   24 Bend                     4     5    10               120.20031
   25 Bend                     5     4     9               119.66005
   26 Bend                     5     6    11               121.01939
   27 Bend                     6     5    10               119.64546
   28 Torsion                  1     2     3     4          -0.08217
   29 Torsion                  1     2     3     8        -179.81647
   30 Torsion                  1     6     5     4           0.08214
   31 Torsion                  1     6     5    10         179.81651
   32 Torsion                  2     1     6     5          -0.04100
   33 Torsion                  2     1     6    11        -179.93647
   34 Torsion                  2     3     4     5           0.12843
   35 Torsion                  2     3     4     9         179.78716
   36 Torsion                  3     2     1     6           0.04102
   37 Torsion                  3     4     5     6          -0.12842
   38 Torsion                  3     4     5    10        -179.86130
   39 Torsion                  4     3     2     7        -179.97921
   40 Torsion                  4     5     6    11         179.97927
   41 Torsion                  5     4     3     8         179.86124
   42 Torsion                  6     1     2     7         179.93639
   43 Torsion                  6     5     4     9        -179.78714
   44 Torsion                  7     2     3     8           0.28650
   45 Torsion                  8     3     4     9          -0.48004
   46 Torsion                  9     4     5    10           0.47998
   47 Torsion                 10     5     6    11          -0.28637
 
 
            XYZ format geometry
            -------------------
    11
 geometry
 C                    -0.08747224     1.38830409    -0.00002072
 C                    -1.26735482     0.69112092    -0.00015162
 C                    -1.16733630    -0.70470852     0.00045065
 C                     0.08291598    -1.31598916    -0.00058791
 C                     1.24655610    -0.55261762     0.00045054
 C                     1.17058620     0.84472727    -0.00015143
 H                    -2.23189055     1.18090100     0.00097681
 H                    -2.06748412    -1.30603725    -0.00263474
 H                     0.15092404    -2.39537432     0.00337919
 H                     2.21506130    -1.03620839    -0.00263405
 H                     2.06601969     1.45169726     0.00097584
 
 ==============================================================================
                                internuclear distances
 ------------------------------------------------------------------------------
       center one      |      center two      | atomic units |  angstroms
 ------------------------------------------------------------------------------
    2 C                |   1 C                |     2.58981  |     1.37047
    3 C                |   2 C                |     2.64450  |     1.39941
    4 C                |   3 C                |     2.62991  |     1.39169
    5 C                |   4 C                |     2.62991  |     1.39169
    6 C                |   1 C                |     2.58981  |     1.37047
    6 C                |   5 C                |     2.64450  |     1.39941
    7 H                |   2 C                |     2.04424  |     1.08176
    8 H                |   3 C                |     2.04569  |     1.08253
    9 H                |   4 C                |     2.04380  |     1.08153
   10 H                |   5 C                |     2.04569  |     1.08253
   11 H                |   6 C                |     2.04424  |     1.08176
 ------------------------------------------------------------------------------
                         number of included internuclear distances:         11
 ==============================================================================



 ==============================================================================
                                 internuclear angles
 ------------------------------------------------------------------------------
        center 1       |       center 2       |       center 3       |  degrees
 ------------------------------------------------------------------------------
    2 C                |   1 C                |   6 C                |   126.05
    1 C                |   2 C                |   3 C                |   116.48
    1 C                |   2 C                |   7 H                |   122.50
    3 C                |   2 C                |   7 H                |   121.02
    2 C                |   3 C                |   4 C                |   120.15
    2 C                |   3 C                |   8 H                |   119.65
    4 C                |   3 C                |   8 H                |   120.20
    3 C                |   4 C                |   5 C                |   120.68
    3 C                |   4 C                |   9 H                |   119.66
    5 C                |   4 C                |   9 H                |   119.66
    4 C                |   5 C                |   6 C                |   120.15
    4 C                |   5 C                |  10 H                |   120.20
    6 C                |   5 C                |  10 H                |   119.65
    1 C                |   6 C                |   5 C                |   116.48
    1 C                |   6 C                |  11 H                |   122.50
    5 C                |   6 C                |  11 H                |   121.02
 ------------------------------------------------------------------------------
                            number of included internuclear angles:         16
 ==============================================================================





 Summary of "ao basis" -> "" (spherical)
 ------------------------------------------------------------------------------
       Tag                 Description            Shells   Functions and Types
 ---------------- ------------------------------  ------  ---------------------
 *                        aug-cc-pvtz                 on all atoms 


 
                                 NWChem DFT Module
                                 -----------------
 
 
                                       None
 
 
                      Basis "ao basis" -> "ao basis" (spherical)
                      -----
  C (Carbon)
  ----------
            Exponent  Coefficients 
       -------------- ---------------------------------------------------------
  1 S  8.23600000E+03  0.000531
  1 S  1.23500000E+03  0.004108
  1 S  2.80800000E+02  0.021087
  1 S  7.92700000E+01  0.081853
  1 S  2.55900000E+01  0.234817
  1 S  8.99700000E+00  0.434401
  1 S  3.31900000E+00  0.346129
  1 S  3.64300000E-01 -0.008983
 
  2 S  8.23600000E+03 -0.000113
  2 S  1.23500000E+03 -0.000878
  2 S  2.80800000E+02 -0.004540
  2 S  7.92700000E+01 -0.018133
  2 S  2.55900000E+01 -0.055760
  2 S  8.99700000E+00 -0.126895
  2 S  3.31900000E+00 -0.170352
  2 S  3.64300000E-01  0.598684
 
  3 S  9.05900000E-01  1.000000
 
  4 S  1.28500000E-01  1.000000
 
  5 S  4.40200000E-02  1.000000
 
  6 P  1.87100000E+01  0.014031
  6 P  4.13300000E+00  0.086866
  6 P  1.20000000E+00  0.290216
 
  7 P  3.82700000E-01  1.000000
 
  8 P  1.20900000E-01  1.000000
 
  9 P  3.56900000E-02  1.000000
 
 10 D  1.09700000E+00  1.000000
 
 11 D  3.18000000E-01  1.000000
 
 12 D  1.00000000E-01  1.000000
 
 13 F  7.61000000E-01  1.000000
 
 14 F  2.68000000E-01  1.000000
 
  H (Hydrogen)
  ------------
            Exponent  Coefficients 
       -------------- ---------------------------------------------------------
  1 S  3.38700000E+01  0.006068
  1 S  5.09500000E+00  0.045308
  1 S  1.15900000E+00  0.202822
 
  2 S  3.25800000E-01  1.000000
 
  3 S  1.02700000E-01  1.000000
 
  4 S  2.52600000E-02  1.000000
 
  5 P  1.40700000E+00  1.000000
 
  6 P  3.88000000E-01  1.000000
 
  7 P  1.02000000E-01  1.000000
 
  8 D  1.05700000E+00  1.000000
 
  9 D  2.47000000E-01  1.000000
 


 Summary of "ao basis" -> "ao basis" (spherical)
 ------------------------------------------------------------------------------
       Tag                 Description            Shells   Functions and Types
 ---------------- ------------------------------  ------  ---------------------
 C                        aug-cc-pvtz               14       46   5s4p3d2f
 H                        aug-cc-pvtz                9       23   4s3p2d




 Summary of "ao basis" -> "ao basis" (spherical)
 ------------------------------------------------------------------------------
       Tag                 Description            Shells   Functions and Types
 ---------------- ------------------------------  ------  ---------------------
 C                        aug-cc-pvtz               14       46   5s4p3d2f
 H                        aug-cc-pvtz                9       23   4s3p2d


  Caching 1-el integrals 
 
            General Information
            -------------------
          SCF calculation type: DFT
          Wavefunction type:  spin polarized.
          No. of atoms     :    11
          No. of electrons :    41
           Alpha electrons :    21
            Beta electrons :    20
          Charge           :     0
          Spin multiplicity:     2
          Use of symmetry is: off; symmetry adaption is: off
          Maximum number of iterations: 500
          This is a Direct SCF calculation.
          AO basis - number of functions:   391
                     number of shells:   129
          Convergence on energy requested:  1.00D-06
          Convergence on density requested:  1.00D-05
          Convergence on gradient requested:  5.00D-04
 
              XC Information
              --------------
                         B3LYP Method XC Potential
                     Hartree-Fock (Exact) Exchange  0.200          
                        Slater Exchange Functional  0.800 local    
                    Becke 1988 Exchange Functional  0.720 non-local
              Lee-Yang-Parr Correlation Functional  0.810          
                  VWN I RPA Correlation Functional  0.190 local    
 
             Grid Information
             ----------------
          Grid used for XC integration:  medium    
          Radial quadrature: Mura-Knowles        
          Angular quadrature: Lebedev. 
          Tag              B.-S. Rad. Rad. Pts. Rad. Cut. Ang. Pts.
          ---              ---------- --------- --------- ---------
          C                   0.70       49          15.0       434
          H                   0.35       45          17.0       434
          Grid pruning is: on 
          Number of quadrature shells:   519
          Spatial weights used:  Erf1
 
          Convergence Information
          -----------------------
          Convergence aids based upon iterative change in 
          total energy or number of iterations. 
          Levelshifting, if invoked, occurs when the 
          HOMO/LUMO gap drops below (HL_TOL):  1.00D-02
          DIIS, if invoked, will attempt to extrapolate 
          using up to (NFOCK): 10 stored Fock matrices.

                    Damping( 0%)  Levelshifting(0.5)       DIIS
                  --------------- ------------------- ---------------
          dE  on:    start            ASAP                start   
          dE off:    2 iters        500 iters           500 iters 

 
      Screening Tolerance Information
      -------------------------------
          Density screening/tol_rho:  1.00D-10
          AO Gaussian exp screening on grid/accAOfunc:  14
          CD Gaussian exp screening on grid/accCDfunc:  20
          XC Gaussian exp screening on grid/accXCfunc:  20
          Schwarz screening/accCoul:  1.00D-08

 
 WARNING : Found     7 linear dependencies 
 S eigenvalue threshold:     1.00000E-05
 Smallest S eigenvalue :     1.46556E-06
 Largest  S eigenvalue :     7.76707E-06
 

 !! The overlap matrix has   7 vectors deemed linearly dependent with
    eigenvalues:
 1.47D-06 2.24D-06 2.83D-06 3.54D-06 5.28D-06 5.95D-06 7.77D-06
 
 
      Superposition of Atomic Density Guess
      -------------------------------------
 
 Sum of atomic energies:        -228.52307259
 
      Non-variational initial energy
      ------------------------------

 Total energy =    -232.667199
 1-e energy   =    -691.328416
 2-e energy   =     263.597274
 HOMO         =      -0.183326
 LUMO         =      -0.022269
 
   Time after variat. SCF:     11.0
   Time prior to 1st pass:     11.0

 Grid_pts file          = ./mode1006.59-p.gridpts.00
 Record size in doubles =  12289        No. of grid_pts per rec  =   3070
 Max. records in memory =      6        Max. recs in file   = 222840047

 Grid integrated density:      40.999765882971
 Requested integration accuracy:   0.10E-05

           Memory utilization after 1st SCF pass: 
           Heap Space remaining (MW):       12.96            12961278
          Stack Space remaining (MW):       13.10            13103676

   convergence    iter        energy       DeltaE   RMS-Dens  Diis-err    time
 ---------------- ----- ----------------- --------- --------- ---------  ------
 d= 0,ls=0.0,diis     1   -231.5815904401 -4.27D+02  6.18D-02  2.09D-01    23.5
                                                     6.98D-02  1.96D-01
 d= 0,ls=0.0,diis     2   -231.6398323416 -5.82D-02  6.09D-02  1.22D-02    35.8
                                                     6.87D-02  1.25D-02
 d= 0,ls=0.0,diis     3   -231.6446096983 -4.78D-03  1.28D-03  3.44D-03    48.2
                                                     1.38D-03  3.50D-03
 d= 0,ls=0.0,diis     4   -231.6457665226 -1.16D-03  2.03D-04  1.12D-03    60.6
                                                     2.07D-04  1.06D-03
 d= 0,ls=0.0,diis     5   -231.6462846955 -5.18D-04  3.40D-05  4.24D-05    73.0
                                                     3.12D-05  4.84D-05
  Resetting Diis
 d= 0,ls=0.0,diis     6   -231.6463125735 -2.79D-05  1.11D-05  7.80D-06    85.4
                                                     1.06D-05  6.30D-06
 d= 0,ls=0.0,diis     7   -231.6463187660 -6.19D-06  7.31D-06  2.13D-06    97.8
                                                     6.52D-06  2.39D-06
 d= 0,ls=0.0,diis     8   -231.6463198424 -1.08D-06  3.05D-06  5.48D-06   110.2
                                                     2.70D-06  4.82D-06
 d= 0,ls=0.0,diis     9   -231.6463231295 -3.29D-06  3.73D-06  3.84D-07   122.6
                                                     3.31D-06  3.27D-07
 d= 0,ls=0.0,diis    10   -231.6463244325 -1.30D-06  2.14D-06  1.90D-07   135.0
                                                     2.45D-06  2.89D-07
 d= 0,ls=0.0,diis    11   -231.6463248674 -4.35D-07  5.94D-07  1.19D-08   147.5
                                                     5.14D-07  9.03D-09


         Total DFT energy =     -231.646324867433
      One electron energy =     -696.560857689326
           Coulomb energy =      304.259775159182
    Exchange-Corr. energy =      -34.409185570143
 Nuclear repulsion energy =      195.063943232855

 Numeric. integr. density =       40.999984400270

     Total iterative time =    136.4s


 
                    DFT Final Alpha Molecular Orbital Analysis
                    ------------------------------------------
 
 Vector    1  Occ=1.000000D+00  E=-1.020525D+01
              MO Center= -8.7D-02,  1.4D+00, -2.1D-05, r^2= 3.0D-02
   Bfn.  Coefficient  Atom+Function         Bfn.  Coefficient  Atom+Function  
  ----- ------------  ---------------      ----- ------------  ---------------
     1      0.984164   1 C  s                 3      0.058854   1 C  s         
    50     -0.038422   2 C  s               234     -0.038423   6 C  s         
   143      0.037881   4 C  s               279      0.037950   7 H  s         
   371      0.037948  11 H  s                51     -0.030664   2 C  s         
   235     -0.030663   6 C  s                47      0.025288   2 C  s         
 
 Vector    2  Occ=1.000000D+00  E=-1.019183D+01
              MO Center= -7.3D-01, -6.3D-01,  4.2D-04, r^2= 9.6D-01
   Bfn.  Coefficient  Atom+Function         Bfn.  Coefficient  Atom+Function  
  ----- ------------  ---------------      ----- ------------  ---------------
    93      0.874156   3 C  s               185      0.411954   5 C  s         
    47      0.176763   2 C  s               142     -0.092905   4 C  s         
   231      0.071985   6 C  s               139      0.055746   4 C  s         
    95      0.052266   3 C  s               302      0.049052   8 H  s         
   325      0.048095   9 H  s               234      0.036373   6 C  s         
 
 Vector    3  Occ=1.000000D+00  E=-1.019180D+01
              MO Center=  8.1D-01, -5.2D-01,  4.2D-04, r^2= 9.8D-01
   Bfn.  Coefficient  Atom+Function         Bfn.  Coefficient  Atom+Function  
  ----- ------------  ---------------      ----- ------------  ---------------
   185      0.872149   5 C  s                93     -0.407749   3 C  s         
   231      0.190346   6 C  s                47     -0.100656   2 C  s         
    50      0.062540   2 C  s               348      0.059053  10 H  s         
    51      0.052890   2 C  s               187      0.051927   5 C  s         
   279     -0.051674   7 H  s               234     -0.051093   6 C  s         
 
 Vector    4  Occ=1.000000D+00  E=-1.019034D+01
              MO Center= -1.1D+00,  6.4D-01, -1.3D-04, r^2= 3.9D-01
   Bfn.  Coefficient  Atom+Function         Bfn.  Coefficient  Atom+Function  
  ----- ------------  ---------------      ----- ------------  ---------------
    47      0.940292   2 C  s               231      0.221309   6 C  s         
    93     -0.191952   3 C  s               279      0.058560   7 H  s         
    49      0.054938   2 C  s               143      0.037884   4 C  s         
     4     -0.035233   1 C  s               185     -0.033115   5 C  s         
   142     -0.032005   4 C  s               189      0.031690   5 C  s         
 
 Vector    5  Occ=1.000000D+00  E=-1.019033D+01
              MO Center=  1.0D+00,  7.7D-01, -1.2D-04, r^2= 4.0D-01
   Bfn.  Coefficient  Atom+Function         Bfn.  Coefficient  Atom+Function  
  ----- ------------  ---------------      ----- ------------  ---------------
   231      0.938681   6 C  s                47     -0.214446   2 C  s         
   185     -0.197588   5 C  s                93      0.056923   3 C  s         
   371      0.056258  11 H  s               233      0.054441   6 C  s         
    97      0.045928   3 C  s                96      0.041035   3 C  s         
   189     -0.039680   5 C  s                12     -0.037461   1 C  px        
 
 Vector    6  Occ=1.000000D+00  E=-1.018432D+01
              MO Center=  8.3D-02, -1.3D+00, -5.8D-04, r^2= 3.5D-02
   Bfn.  Coefficient  Atom+Function         Bfn.  Coefficient  Atom+Function  
  ----- ------------  ---------------      ----- ------------  ---------------
   139      0.984285   4 C  s               141      0.057792   4 C  s         
    96     -0.045913   3 C  s               188     -0.045914   5 C  s         
   325      0.046008   9 H  s               143     -0.043508   4 C  s         
     4      0.040385   1 C  s                93     -0.039664   3 C  s         
   185     -0.039749   5 C  s               151      0.036019   4 C  py        
 
 Vector    7  Occ=1.000000D+00  E=-8.724604D-01
              MO Center= -6.3D-03,  9.9D-02, -2.9D-06, r^2= 2.0D+00
   Bfn.  Coefficient  Atom+Function         Bfn.  Coefficient  Atom+Function  
  ----- ------------  ---------------      ----- ------------  ---------------
     2      0.214063   1 C  s                48      0.202671   2 C  s         
   232      0.202654   6 C  s                94      0.195596   3 C  s         
   186      0.195579   5 C  s               140      0.188217   4 C  s         
    50      0.090236   2 C  s               234      0.090226   6 C  s         
    96      0.088098   3 C  s               188      0.088092   5 C  s         
 
 Vector    8  Occ=1.000000D+00  E=-7.627320D-01
              MO Center= -6.3D-03,  1.0D-01, -7.0D-05, r^2= 2.8D+00
   Bfn.  Coefficient  Atom+Function         Bfn.  Coefficient  Atom+Function  
  ----- ------------  ---------------      ----- ------------  ---------------
    48      0.250858   2 C  s               232     -0.250868   6 C  s         
    94      0.243819   3 C  s               186     -0.243826   5 C  s         
    50      0.146217   2 C  s               234     -0.146225   6 C  s         
   279     -0.129364   7 H  s               371      0.129368  11 H  s         
   150     -0.115521   4 C  px               97      0.110861   3 C  s         
 
 Vector    9  Occ=1.000000D+00  E=-7.537326D-01
              MO Center=  9.2D-03, -1.5D-01,  9.8D-05, r^2= 2.6D+00
   Bfn.  Coefficient  Atom+Function         Bfn.  Coefficient  Atom+Function  
  ----- ------------  ---------------      ----- ------------  ---------------
   140     -0.300918   4 C  s                 2      0.278554   1 C  s         
    94     -0.148872   3 C  s               186     -0.148865   5 C  s         
    48      0.148025   2 C  s               142     -0.147422   4 C  s         
   232      0.148016   6 C  s                96     -0.104914   3 C  s         
   188     -0.104912   5 C  s                 4      0.103007   1 C  s         
 
 Vector   10  Occ=1.000000D+00  E=-6.187398D-01
              MO Center= -2.5D-03,  3.9D-02, -2.6D-04, r^2= 3.6D+00
   Bfn.  Coefficient  Atom+Function         Bfn.  Coefficient  Atom+Function  
  ----- ------------  ---------------      ----- ------------  ---------------
    94     -0.208567   3 C  s               186      0.208562   5 C  s         
    48      0.199457   2 C  s               232     -0.199463   6 C  s         
    50      0.183358   2 C  s               234     -0.183365   6 C  s         
    96     -0.146990   3 C  s               188      0.146979   5 C  s         
     6     -0.127295   1 C  px              144      0.116927   4 C  px        
 
 Vector   11  Occ=1.000000D+00  E=-6.035487D-01
              MO Center=  5.4D-03, -8.6D-02,  1.1D-04, r^2= 3.5D+00
   Bfn.  Coefficient  Atom+Function         Bfn.  Coefficient  Atom+Function  
  ----- ------------  ---------------      ----- ------------  ---------------
   142      0.258357   4 C  s                 2      0.238938   1 C  s         
   140      0.218766   4 C  s                 4      0.198686   1 C  s         
    94     -0.138339   3 C  s               186     -0.138358   5 C  s         
    50     -0.122719   2 C  s               234     -0.122709   6 C  s         
    96     -0.119269   3 C  s               188     -0.119281   5 C  s         
 
 Vector   12  Occ=1.000000D+00  E=-5.277264D-01
              MO Center=  9.4D-03, -1.5D-01,  4.2D-04, r^2= 4.1D+00
   Bfn.  Coefficient  Atom+Function         Bfn.  Coefficient  Atom+Function  
  ----- ------------  ---------------      ----- ------------  ---------------
   148      0.159261   4 C  py              145      0.138835   4 C  py        
   324     -0.126841   9 H  s                55      0.105301   2 C  px        
   240     -0.104901   6 C  py              323     -0.100376   9 H  s         
   237     -0.096179   6 C  py              193     -0.094438   5 C  px        
   278     -0.094489   7 H  s               370     -0.094483  11 H  s         
 
 Vector   13  Occ=1.000000D+00  E=-4.645296D-01
              MO Center= -6.7D-03,  1.0D-01, -6.5D-06, r^2= 2.7D+00
   Bfn.  Coefficient  Atom+Function         Bfn.  Coefficient  Atom+Function  
  ----- ------------  ---------------      ----- ------------  ---------------
     9      0.189042   1 C  px                6      0.175363   1 C  px        
   147      0.172356   4 C  px              144      0.159073   4 C  px        
   239     -0.136869   6 C  px              194     -0.134749   5 C  py        
    56     -0.131373   2 C  py               55     -0.121399   2 C  px        
   191     -0.121433   5 C  py              236     -0.121875   6 C  px        
 
 Vector   14  Occ=1.000000D+00  E=-4.631580D-01
              MO Center=  1.0D-02, -1.6D-01, -5.3D-04, r^2= 4.8D+00
   Bfn.  Coefficient  Atom+Function         Bfn.  Coefficient  Atom+Function  
  ----- ------------  ---------------      ----- ------------  ---------------
     2      0.176558   1 C  s               301      0.136703   8 H  s         
   347      0.136678  10 H  s               140     -0.129402   4 C  s         
   193      0.127765   5 C  px              196      0.120313   5 C  px        
   101     -0.118804   3 C  px              190      0.118565   5 C  px        
    96      0.117522   3 C  s               104     -0.117389   3 C  px        
 
 Vector   15  Occ=1.000000D+00  E=-4.399775D-01
              MO Center= -1.3D-02,  2.1D-01, -7.0D-05, r^2= 4.0D+00
   Bfn.  Coefficient  Atom+Function         Bfn.  Coefficient  Atom+Function  
  ----- ------------  ---------------      ----- ------------  ---------------
   240      0.143967   6 C  py              102      0.139210   3 C  py        
   237      0.132906   6 C  py              278     -0.131462   7 H  s         
   370      0.131459  11 H  s                99      0.130194   3 C  py        
    55      0.129423   2 C  px               56     -0.128746   2 C  py        
   194     -0.126949   5 C  py               53     -0.119657   2 C  py        
 
 Vector   16  Occ=1.000000D+00  E=-3.990530D-01
              MO Center=  4.9D-02, -7.8D-01,  3.0D-04, r^2= 3.3D+00
   Bfn.  Coefficient  Atom+Function         Bfn.  Coefficient  Atom+Function  
  ----- ------------  ---------------      ----- ------------  ---------------
   148      0.233501   4 C  py              145      0.209183   4 C  py        
   324     -0.198591   9 H  s               151      0.172683   4 C  py        
   323     -0.154023   9 H  s                10      0.138639   1 C  py        
    13      0.120967   1 C  py              240      0.115203   6 C  py        
    56      0.109429   2 C  py                7      0.107923   1 C  py        
 
 Vector   17  Occ=1.000000D+00  E=-3.836997D-01
              MO Center= -7.7D-03,  1.2D-01,  5.2D-04, r^2= 2.7D+00
   Bfn.  Coefficient  Atom+Function         Bfn.  Coefficient  Atom+Function  
  ----- ------------  ---------------      ----- ------------  ---------------
    11      0.173446   1 C  pz               57      0.156405   2 C  pz        
   241      0.156393   6 C  pz              103      0.152222   3 C  pz        
   195      0.152209   5 C  pz              149      0.145880   4 C  pz        
     8      0.136821   1 C  pz               54      0.125779   2 C  pz        
   238      0.125770   6 C  pz              100      0.121724   3 C  pz        
 
 Vector   18  Occ=1.000000D+00  E=-3.659892D-01
              MO Center=  9.1D-03, -1.4D-01, -3.5D-04, r^2= 4.1D+00
   Bfn.  Coefficient  Atom+Function         Bfn.  Coefficient  Atom+Function  
  ----- ------------  ---------------      ----- ------------  ---------------
   147     -0.169331   4 C  px              101      0.165178   3 C  px        
   193      0.165098   5 C  px              144     -0.159884   4 C  px        
     9      0.149415   1 C  px               98      0.149456   3 C  px        
   190      0.149153   5 C  px                6      0.141597   1 C  px        
   196      0.135656   5 C  px              104      0.133535   3 C  px        
 
 Vector   19  Occ=1.000000D+00  E=-2.685141D-01
              MO Center=  9.1D-04, -1.5D-02, -8.7D-04, r^2= 3.0D+00
   Bfn.  Coefficient  Atom+Function         Bfn.  Coefficient  Atom+Function  
  ----- ------------  ---------------      ----- ------------  ---------------
    11      0.245299   1 C  pz              149     -0.238555   4 C  pz        
     8      0.192907   1 C  pz              146     -0.190709   4 C  pz        
    14      0.176324   1 C  pz              152     -0.171627   4 C  pz        
   103     -0.126596   3 C  pz              195     -0.126467   5 C  pz        
    57      0.114765   2 C  pz              241      0.114883   6 C  pz        
 
 Vector   20  Occ=1.000000D+00  E=-2.678705D-01
              MO Center= -3.8D-03,  6.1D-02,  4.3D-04, r^2= 3.1D+00
   Bfn.  Coefficient  Atom+Function         Bfn.  Coefficient  Atom+Function  
  ----- ------------  ---------------      ----- ------------  ---------------
   103      0.207440   3 C  pz              195     -0.207521   5 C  pz        
    57      0.203846   2 C  pz              241     -0.203783   6 C  pz        
   100      0.165271   3 C  pz              192     -0.165336   5 C  pz        
    54      0.163240   2 C  pz              238     -0.163190   6 C  pz        
    60      0.150530   2 C  pz              106      0.149950   3 C  pz        
 
 Vector   21  Occ=1.000000D+00  E=-2.484186D-01
              MO Center= -8.2D-02,  1.3D+00,  3.9D-04, r^2= 2.3D+00
   Bfn.  Coefficient  Atom+Function         Bfn.  Coefficient  Atom+Function  
  ----- ------------  ---------------      ----- ------------  ---------------
    10      0.385993   1 C  py               13      0.337688   1 C  py        
     5      0.335236   1 C  s                 7      0.299343   1 C  py        
     4      0.279446   1 C  s                 2      0.138349   1 C  s         
   243     -0.136194   6 C  py               59     -0.134139   2 C  py        
   102      0.112397   3 C  py              194      0.112409   5 C  py        
 
 Vector   22  Occ=0.000000D+00  E=-2.600785D-02
              MO Center= -4.3D-03,  6.8D-02,  7.0D-04, r^2= 4.3D+00
   Bfn.  Coefficient  Atom+Function         Bfn.  Coefficient  Atom+Function  
  ----- ------------  ---------------      ----- ------------  ---------------
   109     -0.320094   3 C  pz              201      0.320073   5 C  pz        
    63      0.314640   2 C  pz              247     -0.314627   6 C  pz        
    60      0.226971   2 C  pz              244     -0.226964   6 C  pz        
   106     -0.223738   3 C  pz              198      0.223725   5 C  pz        
    57      0.218766   2 C  pz              241     -0.218761   6 C  pz        
 
 Vector   23  Occ=0.000000D+00  E=-1.861398D-02
              MO Center=  3.1D-03, -5.0D-02, -7.6D-04, r^2= 4.3D+00
   Bfn.  Coefficient  Atom+Function         Bfn.  Coefficient  Atom+Function  
  ----- ------------  ---------------      ----- ------------  ---------------
   155      0.439595   4 C  pz               17      0.373543   1 C  pz        
   152      0.273935   4 C  pz               11      0.258950   1 C  pz        
   149      0.250783   4 C  pz               14      0.240486   1 C  pz        
   109     -0.226074   3 C  pz              201     -0.226085   5 C  pz        
     8      0.200622   1 C  pz               63     -0.198203   2 C  pz        
 
 Vector   24  Occ=0.000000D+00  E=-1.011001D-02
              MO Center=  6.0D-02, -9.5D-01, -7.2D-05, r^2= 2.0D+01
   Bfn.  Coefficient  Atom+Function         Bfn.  Coefficient  Atom+Function  
  ----- ------------  ---------------      ----- ------------  ---------------
     5      1.446680   1 C  s               279     -0.976473   7 H  s         
   371     -0.976470  11 H  s               326     -0.741578   9 H  s         
   303     -0.730323   8 H  s               349     -0.730190  10 H  s         
   302     -0.650227   8 H  s               348     -0.650235  10 H  s         
   325     -0.588345   9 H  s                51      0.561518   2 C  s         
 
 Vector   25  Occ=0.000000D+00  E= 4.382007D-03
              MO Center=  1.6D-02, -2.6D-01, -2.3D-03, r^2= 2.7D+01
   Bfn.  Coefficient  Atom+Function         Bfn.  Coefficient  Atom+Function  
  ----- ------------  ---------------      ----- ------------  ---------------
    51      2.732057   2 C  s               235     -2.731770   6 C  s         
    97      2.672895   3 C  s               189     -2.672902   5 C  s         
   303      1.996682   8 H  s               349     -1.996798  10 H  s         
    15      1.866781   1 C  px              153      1.807641   4 C  px        
   280      1.540161   7 H  s               372     -1.540041  11 H  s         
 
 Vector   26  Occ=0.000000D+00  E= 8.728840D-03
              MO Center=  4.6D-03, -7.3D-02,  3.5D-03, r^2= 2.7D+01
   Bfn.  Coefficient  Atom+Function         Bfn.  Coefficient  Atom+Function  
  ----- ------------  ---------------      ----- ------------  ---------------
   143      6.246045   4 C  s                51     -4.009297   2 C  s         
   235     -4.009472   6 C  s               326      2.932228   9 H  s         
     5      2.589324   1 C  s               280     -2.388377   7 H  s         
   372     -2.388379  11 H  s               154      1.947242   4 C  py        
   246      1.933994   6 C  py               62      1.829845   2 C  py        
 
 Vector   27  Occ=0.000000D+00  E= 2.670497D-02
              MO Center= -1.5D-02,  2.4D-01, -7.8D-04, r^2= 3.1D+01
   Bfn.  Coefficient  Atom+Function         Bfn.  Coefficient  Atom+Function  
  ----- ------------  ---------------      ----- ------------  ---------------
   280      3.932333   7 H  s               372     -3.932410  11 H  s         
    51      3.659077   2 C  s               235     -3.659457   6 C  s         
   303     -3.601853   8 H  s               349      3.601697  10 H  s         
    61      2.221987   2 C  px               97     -2.189567   3 C  s         
   189      2.189575   5 C  s               199     -2.040763   5 C  px        
 
 Vector   28  Occ=0.000000D+00  E= 3.221484D-02
              MO Center=  3.9D-02, -6.3D-01,  4.6D-03, r^2= 2.9D+01
   Bfn.  Coefficient  Atom+Function         Bfn.  Coefficient  Atom+Function  
  ----- ------------  ---------------      ----- ------------  ---------------
     5      6.392591   1 C  s               326     -4.999044   9 H  s         
   303      3.725895   8 H  s               349      3.726217  10 H  s         
    97     -2.179114   3 C  s               154     -2.177246   4 C  py        
   189     -2.178756   5 C  s               199     -1.648280   5 C  px        
   245      1.633651   6 C  px               61     -1.580138   2 C  px        
 
 Vector   29  Occ=0.000000D+00  E= 4.329124D-02
              MO Center=  1.4D-02, -2.2D-01, -2.2D-02, r^2= 1.3D+01
   Bfn.  Coefficient  Atom+Function         Bfn.  Coefficient  Atom+Function  
  ----- ------------  ---------------      ----- ------------  ---------------
   155      0.598650   4 C  pz               63      0.576335   2 C  pz        
   247      0.576293   6 C  pz                5      0.562034   1 C  s         
   143      0.306078   4 C  s                51     -0.291710   2 C  s         
   235     -0.292032   6 C  s                17     -0.260417   1 C  pz        
    60     -0.154852   2 C  pz              244     -0.154875   6 C  pz        
 
 Vector   30  Occ=0.000000D+00  E= 5.496369D-02
              MO Center=  9.4D-03, -1.5D-01,  2.9D-02, r^2= 1.5D+01
   Bfn.  Coefficient  Atom+Function         Bfn.  Coefficient  Atom+Function  
  ----- ------------  ---------------      ----- ------------  ---------------
     5     10.700329   1 C  s               143      5.278994   4 C  s         
    51     -4.483138   2 C  s               235     -4.483079   6 C  s         
   303     -2.799621   8 H  s               349     -2.799557  10 H  s         
   326      2.058302   9 H  s               199      2.005769   5 C  px        
    97     -1.950703   3 C  s               189     -1.950604   5 C  s         
 
 Vector   31  Occ=0.000000D+00  E= 6.335074D-02
              MO Center= -4.1D-02,  6.5D-01, -4.0D-03, r^2= 2.8D+01
   Bfn.  Coefficient  Atom+Function         Bfn.  Coefficient  Atom+Function  
  ----- ------------  ---------------      ----- ------------  ---------------
     5     24.371386   1 C  s                51     -9.849208   2 C  s         
   235     -9.849051   6 C  s               143      7.621672   4 C  s         
    97     -6.511971   3 C  s               189     -6.511872   5 C  s         
   326      5.864202   9 H  s               154      4.770159   4 C  py        
   303     -4.681707   8 H  s               349     -4.681847  10 H  s         
 
 Vector   32  Occ=0.000000D+00  E= 6.574538D-02
              MO Center=  1.6D-03, -2.5D-02,  3.3D-03, r^2= 1.8D+01
   Bfn.  Coefficient  Atom+Function         Bfn.  Coefficient  Atom+Function  
  ----- ------------  ---------------      ----- ------------  ---------------
   109      0.976557   3 C  pz              201     -0.976537   5 C  pz        
    63      0.770275   2 C  pz              247     -0.770247   6 C  pz        
   169     -0.677060   4 C  d  1             31     -0.583211   1 C  d  1      
   106      0.492460   3 C  pz              198     -0.492466   5 C  pz        
    60      0.488346   2 C  pz              244     -0.488324   6 C  pz        
 
 Vector   33  Occ=0.000000D+00  E= 6.826324D-02
              MO Center= -1.2D-02,  1.9D-01, -1.6D-02, r^2= 1.8D+01
   Bfn.  Coefficient  Atom+Function         Bfn.  Coefficient  Atom+Function  
  ----- ------------  ---------------      ----- ------------  ---------------
    63      1.024096   2 C  pz              247      1.024063   6 C  pz        
   109     -0.811816   3 C  pz              201     -0.811704   5 C  pz        
   155     -0.750832   4 C  pz               14      0.629438   1 C  pz        
   152     -0.617611   4 C  pz               17      0.458674   1 C  pz        
   213     -0.449587   5 C  d -1            121     -0.405779   3 C  d -1      
 
 Vector   34  Occ=0.000000D+00  E= 7.645676D-02
              MO Center=  9.2D-03, -1.6D-01, -4.7D-03, r^2= 3.4D+01
   Bfn.  Coefficient  Atom+Function         Bfn.  Coefficient  Atom+Function  
  ----- ------------  ---------------      ----- ------------  ---------------
    51     13.866385   2 C  s               235    -13.868247   6 C  s         
    97     12.411669   3 C  s               189    -12.412512   5 C  s         
    15      7.678550   1 C  px              153      7.710410   4 C  px        
   107      4.765014   3 C  px              303      4.691694   8 H  s         
   349     -4.691058  10 H  s               199      4.461873   5 C  px        
 
 Vector   35  Occ=0.000000D+00  E= 7.792194D-02
              MO Center=  2.1D-01, -3.3D+00,  9.7D-03, r^2= 2.1D+01
   Bfn.  Coefficient  Atom+Function         Bfn.  Coefficient  Atom+Function  
  ----- ------------  ---------------      ----- ------------  ---------------
   143     18.275834   4 C  s                51    -13.445634   2 C  s         
   235    -13.441323   6 C  s               326      7.026893   9 H  s         
    62      5.653592   2 C  py              246      5.677341   6 C  py        
   200      5.394528   5 C  py              154      5.274405   4 C  py        
   108      5.037427   3 C  py              279      4.190122   7 H  s         
 
 Vector   36  Occ=0.000000D+00  E= 8.155252D-02
              MO Center= -8.8D-02,  1.4D+00,  1.7D-03, r^2= 2.8D+01
   Bfn.  Coefficient  Atom+Function         Bfn.  Coefficient  Atom+Function  
  ----- ------------  ---------------      ----- ------------  ---------------
   143     20.712257   4 C  s                51     -8.944053   2 C  s         
   235     -8.946526   6 C  s               246      5.260343   6 C  py        
    62      5.166335   2 C  py              325     -4.966117   9 H  s         
   280     -4.564044   7 H  s               372     -4.564511  11 H  s         
   200      4.483008   5 C  py              326      4.499529   9 H  s         
 
 Vector   37  Occ=0.000000D+00  E= 8.317365D-02
              MO Center=  4.6D-02, -7.3D-01, -7.6D-04, r^2= 2.2D+01
   Bfn.  Coefficient  Atom+Function         Bfn.  Coefficient  Atom+Function  
  ----- ------------  ---------------      ----- ------------  ---------------
    97      4.940966   3 C  s               189     -4.941270   5 C  s         
    51     -3.128828   2 C  s               235      3.131289   6 C  s         
   108      2.795523   3 C  py              303      2.803716   8 H  s         
   349     -2.803737  10 H  s               200     -2.681687   5 C  py        
   153      2.603841   4 C  px               96      2.072719   3 C  s         
 
 Vector   38  Occ=0.000000D+00  E= 9.540237D-02
              MO Center= -5.5D-02,  8.8D-01,  1.7D-03, r^2= 3.1D+01
   Bfn.  Coefficient  Atom+Function         Bfn.  Coefficient  Atom+Function  
  ----- ------------  ---------------      ----- ------------  ---------------
    51     17.681256   2 C  s               235    -17.682930   6 C  s         
   280      7.217050   7 H  s               372     -7.217064  11 H  s         
    97     -6.903851   3 C  s               189      6.904105   5 C  s         
   108     -6.461792   3 C  py              303     -6.201493   8 H  s         
   349      6.200969  10 H  s               200      5.919532   5 C  py        
 
 Vector   39  Occ=0.000000D+00  E= 1.018003D-01
              MO Center= -7.1D-03,  1.1D-01, -2.0D-03, r^2= 1.9D+01
   Bfn.  Coefficient  Atom+Function         Bfn.  Coefficient  Atom+Function  
  ----- ------------  ---------------      ----- ------------  ---------------
    51     13.735503   2 C  s               235    -13.734531   6 C  s         
    97     10.884679   3 C  s               189    -10.885054   5 C  s         
    15     10.000188   1 C  px              153      9.717171   4 C  px        
   246     -6.096393   6 C  py              108     -6.023722   3 C  py        
   200      5.990610   5 C  py               62      5.909932   2 C  py        
 
 Vector   40  Occ=0.000000D+00  E= 1.064756D-01
              MO Center= -8.0D-03,  1.3D-01,  1.7D-03, r^2= 2.1D+01
   Bfn.  Coefficient  Atom+Function         Bfn.  Coefficient  Atom+Function  
  ----- ------------  ---------------      ----- ------------  ---------------
   143     18.277905   4 C  s                51     -9.937334   2 C  s         
   235     -9.937310   6 C  s                 5     -9.462769   1 C  s         
   107     -8.759402   3 C  px              199      7.978275   5 C  px        
   245     -7.044047   6 C  px              200      6.726644   5 C  py        
    61      6.489119   2 C  px              108      5.671915   3 C  py        
 
 Vector   41  Occ=0.000000D+00  E= 1.082038D-01
              MO Center= -1.0D-02,  1.6D-01,  6.5D-04, r^2= 2.2D+01
   Bfn.  Coefficient  Atom+Function         Bfn.  Coefficient  Atom+Function  
  ----- ------------  ---------------      ----- ------------  ---------------
    63      3.391633   2 C  pz              247     -3.391701   6 C  pz        
   109     -3.363132   3 C  pz              201      3.363515   5 C  pz        
    60      0.696885   2 C  pz              244     -0.696904   6 C  pz        
   106     -0.636827   3 C  pz              198      0.636915   5 C  pz        
    77     -0.380405   2 C  d  1            215      0.361294   5 C  d  1      
 
 Vector   42  Occ=0.000000D+00  E= 1.089657D-01
              MO Center=  3.0D-02, -4.7D-01, -2.1D-03, r^2= 2.1D+01
   Bfn.  Coefficient  Atom+Function         Bfn.  Coefficient  Atom+Function  
  ----- ------------  ---------------      ----- ------------  ---------------
   155      5.321916   4 C  pz              109     -3.443088   3 C  pz        
   201     -3.442795   5 C  pz               17      2.511249   1 C  pz        
   152      0.983519   4 C  pz              106     -0.603302   3 C  pz        
   198     -0.603258   5 C  pz              167      0.569385   4 C  d -1      
    14      0.504783   1 C  pz               63     -0.475531   2 C  pz        
 
 Vector   43  Occ=0.000000D+00  E= 1.094994D-01
              MO Center=  2.9D-02, -4.5D-01, -6.8D-04, r^2= 2.7D+01
   Bfn.  Coefficient  Atom+Function         Bfn.  Coefficient  Atom+Function  
  ----- ------------  ---------------      ----- ------------  ---------------
   326      7.669602   9 H  s               154      7.057646   4 C  py        
   303     -6.474824   8 H  s               349     -6.475173  10 H  s         
   143     -5.607394   4 C  s               108     -4.430876   3 C  py        
   200     -4.185368   5 C  py               62     -4.157096   2 C  py        
   246     -4.137563   6 C  py                4      3.925937   1 C  s         
 
 Vector   44  Occ=0.000000D+00  E= 1.178165D-01
              MO Center= -4.1D-02,  6.5D-01, -1.5D-03, r^2= 1.4D+01
   Bfn.  Coefficient  Atom+Function         Bfn.  Coefficient  Atom+Function  
  ----- ------------  ---------------      ----- ------------  ---------------
    17      6.879715   1 C  pz               63     -6.023036   2 C  pz        
   247     -6.022875   6 C  pz              109      5.052999   3 C  pz        
   201      5.052829   5 C  pz              155     -4.823263   4 C  pz        
    14      1.235857   1 C  pz               60     -1.020623   2 C  pz        
   244     -1.020589   6 C  pz              106      0.892446   3 C  pz        
 
 Vector   45  Occ=0.000000D+00  E= 1.264079D-01
              MO Center= -1.8D-02,  2.9D-01, -1.9D-04, r^2= 2.5D+01
   Bfn.  Coefficient  Atom+Function         Bfn.  Coefficient  Atom+Function  
  ----- ------------  ---------------      ----- ------------  ---------------
    51      7.587830   2 C  s               235     -7.587737   6 C  s         
   107      7.204259   3 C  px              199      7.127086   5 C  px        
   245     -7.037352   6 C  px               61     -6.927040   2 C  px        
    15      6.443752   1 C  px               97     -6.192848   3 C  s         
   189      6.192927   5 C  s               153     -5.818207   4 C  px        
 
 Vector   46  Occ=0.000000D+00  E= 1.274496D-01
              MO Center= -1.2D-02,  1.9D-01,  4.3D-04, r^2= 2.6D+01
   Bfn.  Coefficient  Atom+Function         Bfn.  Coefficient  Atom+Function  
  ----- ------------  ---------------      ----- ------------  ---------------
   154     -8.032044   4 C  py               16      7.425078   1 C  py        
   108      6.888918   3 C  py               62     -6.576376   2 C  py        
   200      6.571064   5 C  py              246     -6.383525   6 C  py        
   326     -4.051308   9 H  s                 5      3.564154   1 C  s         
   303      3.164508   8 H  s               349      3.164870  10 H  s         
 
 Vector   47  Occ=0.000000D+00  E= 1.609526D-01
              MO Center= -8.5D-03,  1.4D-01,  1.3D-03, r^2= 1.7D+01
   Bfn.  Coefficient  Atom+Function         Bfn.  Coefficient  Atom+Function  
  ----- ------------  ---------------      ----- ------------  ---------------
    17      8.192338   1 C  pz               63     -8.003969   2 C  pz        
   247     -8.004079   6 C  pz              155     -7.856173   4 C  pz        
   109      7.770886   3 C  pz              201      7.771000   5 C  pz        
    60     -1.191749   2 C  pz              106      1.192550   3 C  pz        
   198      1.192576   5 C  pz              244     -1.191774   6 C  pz        
 
 Vector   48  Occ=0.000000D+00  E= 1.660207D-01
              MO Center= -8.9D-02,  1.4D+00, -7.4D-04, r^2= 2.2D+01
   Bfn.  Coefficient  Atom+Function         Bfn.  Coefficient  Atom+Function  
  ----- ------------  ---------------      ----- ------------  ---------------
     5     59.208356   1 C  s                51    -25.978150   2 C  s         
   143     25.968606   4 C  s               235    -25.978750   6 C  s         
    97    -14.422638   3 C  s               189    -14.421749   5 C  s         
   154      7.430191   4 C  py              245      6.813550   6 C  px        
    61     -6.398667   2 C  px              326      6.156645   9 H  s         
 
 Vector   49  Occ=0.000000D+00  E= 1.754209D-01
              MO Center=  2.5D-02, -3.9D-01,  4.1D-03, r^2= 1.1D+01
   Bfn.  Coefficient  Atom+Function         Bfn.  Coefficient  Atom+Function  
  ----- ------------  ---------------      ----- ------------  ---------------
   335      1.104536   9 H  pz              312      1.079157   8 H  pz        
   358      1.079105  10 H  pz              289      0.973086   7 H  pz        
   381      0.973042  11 H  pz               17      0.959832   1 C  pz        
    63     -0.885304   2 C  pz              247     -0.885273   6 C  pz        
   106     -0.842958   3 C  pz              198     -0.842902   5 C  pz        
 
 Vector   50  Occ=0.000000D+00  E= 1.864274D-01
              MO Center=  3.4D-02, -5.5D-01, -3.8D-03, r^2= 1.5D+01
   Bfn.  Coefficient  Atom+Function         Bfn.  Coefficient  Atom+Function  
  ----- ------------  ---------------      ----- ------------  ---------------
     5     15.505490   1 C  s                97     -7.272695   3 C  s         
   189     -7.272343   5 C  s                51     -4.476097   2 C  s         
   235     -4.475918   6 C  s               325      4.423622   9 H  s         
    62     -4.043825   2 C  py              154      3.981205   4 C  py        
   246     -3.821910   6 C  py              302      3.261513   8 H  s         
 
 Vector   51  Occ=0.000000D+00  E= 1.980396D-01
              MO Center= -3.0D-02,  4.7D-01,  2.9D-03, r^2= 2.3D+01
   Bfn.  Coefficient  Atom+Function         Bfn.  Coefficient  Atom+Function  
  ----- ------------  ---------------      ----- ------------  ---------------
    51     44.604251   2 C  s               235    -44.588231   6 C  s         
    97     25.204615   3 C  s               189    -25.208959   5 C  s         
    15     18.495934   1 C  px              153     17.069289   4 C  px        
   302    -14.010455   8 H  s               348     14.011862  10 H  s         
   200      9.225858   5 C  py              108     -8.514397   3 C  py        
 
 Vector   52  Occ=0.000000D+00  E= 1.984405D-01
              MO Center=  4.6D-02, -7.3D-01, -6.3D-03, r^2= 2.3D+01
   Bfn.  Coefficient  Atom+Function         Bfn.  Coefficient  Atom+Function  
  ----- ------------  ---------------      ----- ------------  ---------------
   143     61.325580   4 C  s                51    -34.520137   2 C  s         
   235    -34.540718   6 C  s               325    -16.866287   9 H  s         
    62     14.721597   2 C  py              246     14.448624   6 C  py        
   200     13.769648   5 C  py              108     12.556928   3 C  py        
     5    -11.583606   1 C  s               279     11.178564   7 H  s         
 
 Vector   53  Occ=0.000000D+00  E= 2.154373D-01
              MO Center=  8.8D-02, -1.4D+00,  2.1D-03, r^2= 1.5D+01
   Bfn.  Coefficient  Atom+Function         Bfn.  Coefficient  Atom+Function  
  ----- ------------  ---------------      ----- ------------  ---------------
    97     13.858851   3 C  s               189    -13.858344   5 C  s         
    96      6.547442   3 C  s               188     -6.547499   5 C  s         
   153      6.324235   4 C  px              279     -5.135893   7 H  s         
   371      5.135641  11 H  s               303      4.736228   8 H  s         
   349     -4.735969  10 H  s               246     -4.493366   6 C  py        
 
 Vector   54  Occ=0.000000D+00  E= 2.182738D-01
              MO Center=  1.8D-02, -2.8D-01,  1.2D-03, r^2= 1.5D+01
   Bfn.  Coefficient  Atom+Function         Bfn.  Coefficient  Atom+Function  
  ----- ------------  ---------------      ----- ------------  ---------------
   143     25.788989   4 C  s                51    -17.780266   2 C  s         
   235    -17.791758   6 C  s                 5     15.975820   1 C  s         
    16     -6.446876   1 C  py              325     -6.050375   9 H  s         
    62      4.840165   2 C  py              246      4.722813   6 C  py        
   279      3.739592   7 H  s               371      3.740186  11 H  s         
 
 Vector   55  Occ=0.000000D+00  E= 2.191108D-01
              MO Center=  5.4D-03, -8.4D-02,  7.5D-03, r^2= 1.5D+01
   Bfn.  Coefficient  Atom+Function         Bfn.  Coefficient  Atom+Function  
  ----- ------------  ---------------      ----- ------------  ---------------
    51     19.800362   2 C  s               235    -19.791099   6 C  s         
   108     -8.471881   3 C  py              200      8.113660   5 C  py        
    15      7.528053   1 C  px              302     -6.933677   8 H  s         
   348      6.933710  10 H  s               153      6.304780   4 C  px        
   246     -4.034093   6 C  py               62      3.898021   2 C  py        
 
 Vector   56  Occ=0.000000D+00  E= 2.301178D-01
              MO Center= -1.8D-02,  2.9D-01,  1.1D-03, r^2= 1.8D+01
   Bfn.  Coefficient  Atom+Function         Bfn.  Coefficient  Atom+Function  
  ----- ------------  ---------------      ----- ------------  ---------------
   199      4.914213   5 C  px              107      4.648123   3 C  px        
   153     -3.564660   4 C  px               50     -3.272408   2 C  s         
   234      3.272016   6 C  s               303      3.159181   8 H  s         
   349     -3.158524  10 H  s                15     -2.625176   1 C  px        
   108      2.423446   3 C  py               59      1.952318   2 C  py        
 
 Vector   57  Occ=0.000000D+00  E= 2.311949D-01
              MO Center= -7.1D-05,  1.3D-03,  1.1D-03, r^2= 1.6D+01
   Bfn.  Coefficient  Atom+Function         Bfn.  Coefficient  Atom+Function  
  ----- ------------  ---------------      ----- ------------  ---------------
   106      2.142173   3 C  pz              198     -2.142157   5 C  pz        
    60      2.046086   2 C  pz              244     -2.046065   6 C  pz        
   312     -1.817801   8 H  pz              358      1.817850  10 H  pz        
   289     -1.719897   7 H  pz              381      1.719856  11 H  pz        
   169     -1.379544   4 C  d  1             31     -1.246484   1 C  d  1      
 
 Vector   58  Occ=0.000000D+00  E= 2.354261D-01
              MO Center= -1.3D-02,  2.1D-01, -1.9D-02, r^2= 1.6D+01
   Bfn.  Coefficient  Atom+Function         Bfn.  Coefficient  Atom+Function  
  ----- ------------  ---------------      ----- ------------  ---------------
   143     14.931890   4 C  s                51    -10.472866   2 C  s         
   235    -10.463065   6 C  s               107     -8.189288   3 C  px        
   199      7.760732   5 C  px               61      5.430771   2 C  px        
   245     -5.309200   6 C  px              303     -4.418900   8 H  s         
   349     -4.420521  10 H  s                 5      4.072804   1 C  s         
 
 Vector   59  Occ=0.000000D+00  E= 2.365098D-01
              MO Center= -4.5D-03,  7.3D-02, -1.3D-02, r^2= 1.7D+01
   Bfn.  Coefficient  Atom+Function         Bfn.  Coefficient  Atom+Function  
  ----- ------------  ---------------      ----- ------------  ---------------
    97    -33.155859   3 C  s               189     33.156343   5 C  s         
    51     31.529313   2 C  s               235    -31.533308   6 C  s         
    96    -14.380641   3 C  s               188     14.380006   5 C  s         
   279     10.793100   7 H  s               371    -10.792062  11 H  s         
   302    -10.653489   8 H  s               348     10.653332  10 H  s         
 
 Vector   60  Occ=0.000000D+00  E= 2.434540D-01
              MO Center=  2.7D-03, -4.3D-02,  2.3D-02, r^2= 1.5D+01
   Bfn.  Coefficient  Atom+Function         Bfn.  Coefficient  Atom+Function  
  ----- ------------  ---------------      ----- ------------  ---------------
   152      3.413735   4 C  pz               14     -3.025401   1 C  pz        
   289      2.170663   7 H  pz              381      2.170681  11 H  pz        
   335     -2.124542   9 H  pz              261      2.001542   6 C  d  1      
    77     -1.986875   2 C  d  1             63     -1.597725   2 C  pz        
   247     -1.597655   6 C  pz              155      1.369628   4 C  pz        
 
 Vector   61  Occ=0.000000D+00  E= 2.594930D-01
              MO Center=  3.8D-02, -6.0D-01, -1.4D-03, r^2= 1.7D+01
   Bfn.  Coefficient  Atom+Function         Bfn.  Coefficient  Atom+Function  
  ----- ------------  ---------------      ----- ------------  ---------------
     5      8.750883   1 C  s               108     -6.655819   3 C  py        
   200     -6.065374   5 C  py              303     -5.185730   8 H  s         
   349     -5.185663  10 H  s               199      5.085149   5 C  px        
   197     -4.835788   5 C  py              143     -4.770343   4 C  s         
   105     -4.734559   3 C  py              154      4.393824   4 C  py        
 
 Vector   62  Occ=0.000000D+00  E= 2.620186D-01
              MO Center=  6.8D-02, -1.1D+00, -3.4D-04, r^2= 1.7D+01
   Bfn.  Coefficient  Atom+Function         Bfn.  Coefficient  Atom+Function  
  ----- ------------  ---------------      ----- ------------  ---------------
     5     18.940271   1 C  s               154     15.371019   4 C  py        
   143     15.164111   4 C  s                51    -14.556428   2 C  s         
   235    -14.557696   6 C  s               326      9.179755   9 H  s         
     4      6.017248   1 C  s               108     -4.763350   3 C  py        
    97     -4.656569   3 C  s               189     -4.655177   5 C  s         
 
 Vector   63  Occ=0.000000D+00  E= 2.676753D-01
              MO Center= -2.7D-02,  4.3D-01,  6.7D-04, r^2= 2.0D+01
   Bfn.  Coefficient  Atom+Function         Bfn.  Coefficient  Atom+Function  
  ----- ------------  ---------------      ----- ------------  ---------------
    51     20.195110   2 C  s               235    -20.194796   6 C  s         
    97    -11.909132   3 C  s               189     11.909520   5 C  s         
    61     11.014169   2 C  px              245     10.263152   6 C  px        
    96     -8.755737   3 C  s               188      8.755907   5 C  s         
   279      8.764414   7 H  s               371     -8.764669  11 H  s         
 
 Vector   64  Occ=0.000000D+00  E= 2.747954D-01
              MO Center= -1.5D-03,  2.4D-02,  1.2D-03, r^2= 1.4D+01
   Bfn.  Coefficient  Atom+Function         Bfn.  Coefficient  Atom+Function  
  ----- ------------  ---------------      ----- ------------  ---------------
   143      8.947157   4 C  s                 5      8.697884   1 C  s         
   154      5.764026   4 C  py              279     -5.655526   7 H  s         
   371     -5.655126  11 H  s               302     -4.648534   8 H  s         
   348     -4.648129  10 H  s               325     -4.358284   9 H  s         
    16     -4.031796   1 C  py              246      3.261658   6 C  py        
 
 Vector   65  Occ=0.000000D+00  E= 2.829797D-01
              MO Center= -1.2D-02,  1.8D-01,  5.7D-04, r^2= 1.6D+01
   Bfn.  Coefficient  Atom+Function         Bfn.  Coefficient  Atom+Function  
  ----- ------------  ---------------      ----- ------------  ---------------
    12      9.527844   1 C  px               97      8.894891   3 C  s         
   189     -8.894933   5 C  s               302      8.100036   8 H  s         
   348     -8.099630  10 H  s                51     -8.021214   2 C  s         
   235      8.020657   6 C  s               199      7.632341   5 C  px        
   107      7.160177   3 C  px              150      6.193893   4 C  px        
 
 Vector   66  Occ=0.000000D+00  E= 2.954383D-01
              MO Center= -3.3D-03,  5.2D-02, -6.5D-05, r^2= 1.6D+01
   Bfn.  Coefficient  Atom+Function         Bfn.  Coefficient  Atom+Function  
  ----- ------------  ---------------      ----- ------------  ---------------
    63      3.201423   2 C  pz              109     -3.188702   3 C  pz        
   201      3.188303   5 C  pz              247     -3.201198   6 C  pz        
   289     -2.279571   7 H  pz              381      2.279599  11 H  pz        
    60      2.256875   2 C  pz              244     -2.256872   6 C  pz        
   312      2.261757   8 H  pz              358     -2.261661  10 H  pz        
 
 Vector   67  Occ=0.000000D+00  E= 2.962828D-01
              MO Center= -6.0D-02,  9.6D-01,  4.5D-04, r^2= 1.4D+01
   Bfn.  Coefficient  Atom+Function         Bfn.  Coefficient  Atom+Function  
  ----- ------------  ---------------      ----- ------------  ---------------
     4     10.427193   1 C  s                59     -5.742844   2 C  py        
   243     -5.634085   6 C  py                5      5.529359   1 C  s         
   105     -5.528837   3 C  py              197     -5.140467   5 C  py        
    16      4.276222   1 C  py              279     -4.187662   7 H  s         
   371     -4.187384  11 H  s                13      3.915652   1 C  py        
 
 Vector   68  Occ=0.000000D+00  E= 3.080387D-01
              MO Center=  1.7D-02, -2.7D-01,  2.6D-03, r^2= 1.5D+01
   Bfn.  Coefficient  Atom+Function         Bfn.  Coefficient  Atom+Function  
  ----- ------------  ---------------      ----- ------------  ---------------
   155      5.177992   4 C  pz               14      4.363620   1 C  pz        
   109     -3.739436   3 C  pz              201     -3.739583   5 C  pz        
   335     -2.710752   9 H  pz               60     -2.049815   2 C  pz        
   244     -2.049704   6 C  pz              152      1.852165   4 C  pz        
    17      1.841372   1 C  pz               29     -1.719402   1 C  d -1      
 
 Vector   69  Occ=0.000000D+00  E= 3.150351D-01
              MO Center=  4.7D-03, -7.4D-02, -3.4D-03, r^2= 9.1D+00
   Bfn.  Coefficient  Atom+Function         Bfn.  Coefficient  Atom+Function  
  ----- ------------  ---------------      ----- ------------  ---------------
   261      1.252799   6 C  d  1             77      1.133053   2 C  d  1      
   169     -1.083173   4 C  d  1             75     -1.023870   2 C  d -1      
   259      0.873603   6 C  d -1            289     -0.720824   7 H  pz        
   381      0.720830  11 H  pz               31      0.634923   1 C  d  1      
    60     -0.336199   2 C  pz              244      0.336423   6 C  pz        
 
 Vector   70  Occ=0.000000D+00  E= 3.284642D-01
              MO Center=  3.9D-02, -6.2D-01, -1.8D-02, r^2= 1.5D+01
   Bfn.  Coefficient  Atom+Function         Bfn.  Coefficient  Atom+Function  
  ----- ------------  ---------------      ----- ------------  ---------------
   142     12.140589   4 C  s                96      8.718730   3 C  s         
   188      8.718869   5 C  s               151     -6.837524   4 C  py        
   325     -5.841590   9 H  s                 4     -5.241716   1 C  s         
   334     -5.004564   9 H  py                5      4.905222   1 C  s         
   302     -4.386709   8 H  s               348     -4.386101  10 H  s         
 
 Vector   71  Occ=0.000000D+00  E= 3.347635D-01
              MO Center= -1.6D-03,  2.5D-02,  1.3D-02, r^2= 7.7D+00
   Bfn.  Coefficient  Atom+Function         Bfn.  Coefficient  Atom+Function  
  ----- ------------  ---------------      ----- ------------  ---------------
   289      2.027588   7 H  pz              381      2.027738  11 H  pz        
   335      1.836668   9 H  pz               14     -1.772657   1 C  pz        
   155     -1.701279   4 C  pz               63     -1.542226   2 C  pz        
   247     -1.542242   6 C  pz               77     -1.510884   2 C  d  1      
   261      1.410976   6 C  d  1            106     -1.282779   3 C  pz        
 
 Vector   72  Occ=0.000000D+00  E= 3.433155D-01
              MO Center=  2.4D-02, -3.9D-01, -2.0D-02, r^2= 1.2D+01
   Bfn.  Coefficient  Atom+Function         Bfn.  Coefficient  Atom+Function  
  ----- ------------  ---------------      ----- ------------  ---------------
   169      3.294119   4 C  d  1             31      2.701895   1 C  d  1      
   312     -2.480958   8 H  pz              358      2.480660  10 H  pz        
   123      2.184580   3 C  d  1            215      2.144017   5 C  d  1      
   106     -1.797719   3 C  pz              198      1.797771   5 C  pz        
   289     -1.427287   7 H  pz              381      1.427117  11 H  pz        
 
 Vector   73  Occ=0.000000D+00  E= 3.449179D-01
              MO Center= -3.5D-02,  5.6D-01,  2.1D-02, r^2= 1.2D+01
   Bfn.  Coefficient  Atom+Function         Bfn.  Coefficient  Atom+Function  
  ----- ------------  ---------------      ----- ------------  ---------------
   143     23.687807   4 C  s               325    -13.015709   9 H  s         
   279     11.896011   7 H  s               371     11.899221  11 H  s         
    51    -11.749837   2 C  s               235    -11.757844   6 C  s         
     5     -7.677206   1 C  s               197     -6.900600   5 C  py        
   105     -6.780418   3 C  py              243     -6.018173   6 C  py        
 
 Vector   74  Occ=0.000000D+00  E= 3.478306D-01
              MO Center=  9.7D-03, -1.5D-01,  1.7D-02, r^2= 1.2D+01
   Bfn.  Coefficient  Atom+Function         Bfn.  Coefficient  Atom+Function  
  ----- ------------  ---------------      ----- ------------  ---------------
    51     21.166452   2 C  s               235    -21.161919   6 C  s         
   302    -11.977700   8 H  s               348     11.980071  10 H  s         
    97     10.956522   3 C  s               189    -10.958807   5 C  s         
   279     -9.761921   7 H  s               371      9.755939  11 H  s         
    12     -8.086646   1 C  px              150     -7.035540   4 C  px        
 
 Vector   75  Occ=0.000000D+00  E= 3.481719D-01
              MO Center=  3.3D-02, -5.2D-01, -2.5D-02, r^2= 1.3D+01
   Bfn.  Coefficient  Atom+Function         Bfn.  Coefficient  Atom+Function  
  ----- ------------  ---------------      ----- ------------  ---------------
   155     -3.974770   4 C  pz               17      3.786144   1 C  pz        
   109      3.565250   3 C  pz              201      3.565300   5 C  pz        
    63     -3.455910   2 C  pz              247     -3.455982   6 C  pz        
   152     -2.997913   4 C  pz              213     -2.308506   5 C  d -1      
   289      2.265815   7 H  pz              381      2.265478  11 H  pz        
 
 Vector   76  Occ=0.000000D+00  E= 3.527408D-01
              MO Center=  3.3D-02, -5.2D-01, -1.3D-02, r^2= 1.4D+01
   Bfn.  Coefficient  Atom+Function         Bfn.  Coefficient  Atom+Function  
  ----- ------------  ---------------      ----- ------------  ---------------
    17      6.383834   1 C  pz               63     -5.853223   2 C  pz        
   247     -5.853284   6 C  pz              109      5.120144   3 C  pz        
   201      5.120170   5 C  pz              155     -4.847580   4 C  pz        
   335      3.958924   9 H  pz               14      3.788270   1 C  pz        
   167      3.076053   4 C  d -1             60     -2.680430   2 C  pz        
 
 Vector   77  Occ=0.000000D+00  E= 3.546376D-01
              MO Center= -2.0D-02,  3.1D-01,  1.7D-02, r^2= 1.5D+01
   Bfn.  Coefficient  Atom+Function         Bfn.  Coefficient  Atom+Function  
  ----- ------------  ---------------      ----- ------------  ---------------
     5     31.316633   1 C  s               143     15.873202   4 C  s         
    51    -15.719888   2 C  s               235    -15.717270   6 C  s         
   151    -11.058275   4 C  py              196     -7.587315   5 C  px        
    50      7.369074   2 C  s               234      7.369051   6 C  s         
    13      7.267732   1 C  py              104      7.147344   3 C  px        
 
 Vector   78  Occ=0.000000D+00  E= 3.599054D-01
              MO Center= -4.7D-02,  7.5D-01,  2.4D-03, r^2= 1.3D+01
   Bfn.  Coefficient  Atom+Function         Bfn.  Coefficient  Atom+Function  
  ----- ------------  ---------------      ----- ------------  ---------------
   289      3.406142   7 H  pz              381     -3.406242  11 H  pz        
    60      3.157816   2 C  pz              244     -3.157862   6 C  pz        
    77     -3.083463   2 C  d  1            121     -3.088405   3 C  d -1      
   259      3.025844   6 C  d -1            213      2.787058   5 C  d -1      
   312     -2.763371   8 H  pz              358      2.763246  10 H  pz        
 
 Vector   79  Occ=0.000000D+00  E= 3.685604D-01
              MO Center=  3.6D-02, -5.7D-01,  2.7D-04, r^2= 1.3D+01
   Bfn.  Coefficient  Atom+Function         Bfn.  Coefficient  Atom+Function  
  ----- ------------  ---------------      ----- ------------  ---------------
    96     10.730084   3 C  s               188     10.728951   5 C  s         
   104     -8.499279   3 C  px              196      8.489734   5 C  px        
   142     -7.536793   4 C  s                 5      7.223304   1 C  s         
   212      5.398536   5 C  d -2            258      5.320297   6 C  d -2      
   120     -5.227159   3 C  d -2            242     -5.090767   6 C  px        
 
 Vector   80  Occ=0.000000D+00  E= 3.721006D-01
              MO Center=  2.0D-02, -3.1D-01, -3.2D-03, r^2= 1.3D+01
   Bfn.  Coefficient  Atom+Function         Bfn.  Coefficient  Atom+Function  
  ----- ------------  ---------------      ----- ------------  ---------------
    97      9.836384   3 C  s               189     -9.835190   5 C  s         
    50      9.027944   2 C  s               234     -9.027481   6 C  s         
   279     -5.481798   7 H  s               371      5.484160  11 H  s         
   357      5.245802  10 H  py              311     -5.124972   8 H  py        
   212     -4.881492   5 C  d -2             51     -4.808077   2 C  s         
 
 Vector   81  Occ=0.000000D+00  E= 3.819175D-01
              MO Center=  3.6D-02, -5.7D-01,  3.7D-03, r^2= 1.6D+01
   Bfn.  Coefficient  Atom+Function         Bfn.  Coefficient  Atom+Function  
  ----- ------------  ---------------      ----- ------------  ---------------
   166      9.080625   4 C  d -2            333      7.117800   9 H  px        
   150     -6.661766   4 C  px              216     -6.556063   5 C  d  2      
   124      6.100964   3 C  d  2            279      5.865217   7 H  s         
   371     -5.865439  11 H  s               310      5.085072   8 H  px        
   356      5.021635  10 H  px               96     -4.804985   3 C  s         
 
 Vector   82  Occ=0.000000D+00  E= 3.932665D-01
              MO Center= -2.9D-02,  4.6D-01,  3.2D-04, r^2= 1.5D+01
   Bfn.  Coefficient  Atom+Function         Bfn.  Coefficient  Atom+Function  
  ----- ------------  ---------------      ----- ------------  ---------------
    12     12.181494   1 C  px               51    -11.053352   2 C  s         
   235     11.054892   6 C  s                78     -9.086742   2 C  d  2      
   262      8.757953   6 C  d  2             15     -6.830083   1 C  px        
   216      6.674466   5 C  d  2            153     -5.863898   4 C  px        
   124     -5.831982   3 C  d  2            379     -5.816511  11 H  px        
 
 Vector   83  Occ=0.000000D+00  E= 3.960235D-01
              MO Center= -5.2D-02,  8.3D-01,  1.5D-02, r^2= 1.2D+01
   Bfn.  Coefficient  Atom+Function         Bfn.  Coefficient  Atom+Function  
  ----- ------------  ---------------      ----- ------------  ---------------
   152     -7.529336   4 C  pz              106      7.334329   3 C  pz        
   198      7.334487   5 C  pz               60     -6.478811   2 C  pz        
   244     -6.478888   6 C  pz              167     -6.331717   4 C  d -1      
   215      5.116670   5 C  d  1            123     -4.710559   3 C  d  1      
    14      4.572315   1 C  pz              259      4.025215   6 C  d -1      
 
 Vector   84  Occ=0.000000D+00  E= 4.017339D-01
              MO Center= -3.3D-02,  5.2D-01, -1.6D-03, r^2= 1.5D+01
   Bfn.  Coefficient  Atom+Function         Bfn.  Coefficient  Atom+Function  
  ----- ------------  ---------------      ----- ------------  ---------------
     5     51.712902   1 C  s                51    -19.764888   2 C  s         
   235    -19.761548   6 C  s                97    -17.387857   3 C  s         
   189    -17.385139   5 C  s               143     11.651015   4 C  s         
   142    -10.272352   4 C  s                 4     -9.664650   1 C  s         
    50     -7.942065   2 C  s               234     -7.942892   6 C  s         
 
 Vector   85  Occ=0.000000D+00  E= 4.053070D-01
              MO Center= -5.5D-03,  8.7D-02, -4.1D-03, r^2= 1.3D+01
   Bfn.  Coefficient  Atom+Function         Bfn.  Coefficient  Atom+Function  
  ----- ------------  ---------------      ----- ------------  ---------------
[...]
  Root  27         a              0.251973626 a.u.                6.8566 eV 
  <S2> =   1.6619
  ----------------------------------------------------------------------------
     Transition Moments    X -0.00022   Y  0.00328   Z -0.24503
     Transition Moments   XX  0.00104  XY -0.00098  XZ  0.01065
     Transition Moments   YY  0.01631  YZ -0.16704  ZZ  0.00068
     Dipole Oscillator Strength                    0.0100873874
     Electric Quadrupole                           0.0000000024
     Magnetic Dipole                               0.0000000311
     Total Oscillator Strength                     0.0100874209
 
     Occ.   19 alpha a   ---  Virt.   26 alpha a   -0.98231 X
     Occ.   19 alpha a   ---  Virt.   35 alpha a    0.07114 X
     Occ.   19 alpha a   ---  Virt.   36 alpha a    0.07363 X
     Occ.   20 alpha a   ---  Virt.   25 alpha a   -0.11469 X
     Occ.   20 beta  a   ---  Virt.   26 beta  a   -0.05039 X
  ----------------------------------------------------------------------------
  Root  28         a              0.252621275 a.u.                6.8742 eV 
  <S2> =   1.8893
  ----------------------------------------------------------------------------
     Transition Moments    X -0.00064   Y -0.00004   Z  0.00006
     Transition Moments   XX -0.00031  XY  0.00249  XZ  0.39296
     Transition Moments   YY  0.00031  YZ  0.02479  ZZ -0.00000
     Dipole Oscillator Strength                    0.0000000702
     Electric Quadrupole                           0.0000000133
     Magnetic Dipole                               0.0000000096
     Total Oscillator Strength                     0.0000000931
 
     Occ.   19 alpha a   ---  Virt.   25 alpha a   -0.24743 X
     Occ.   20 alpha a   ---  Virt.   26 alpha a   -0.96036 X
     Occ.   20 alpha a   ---  Virt.   35 alpha a    0.06153 X
     Occ.   20 alpha a   ---  Virt.   36 alpha a    0.06547 X
     Occ.   19 beta  a   ---  Virt.   26 beta  a    0.06478 X
  ----------------------------------------------------------------------------
  Root  29         a              0.253988627 a.u.                6.9114 eV 
  <S2> =   1.6186
  ----------------------------------------------------------------------------
     Transition Moments    X  0.01094   Y  0.00069   Z -0.00001
     Transition Moments   XX  0.00038  XY -0.00303  XZ -0.49356
     Transition Moments   YY -0.00039  YZ -0.03111  ZZ  0.00000
     Dipole Oscillator Strength                    0.0000203477
     Electric Quadrupole                           0.0000000213
     Magnetic Dipole                               0.0000000109
     Total Oscillator Strength                     0.0000203800
 
     Occ.   20 alpha a   ---  Virt.   26 alpha a    0.06935 X
     Occ.   19 beta  a   ---  Virt.   26 beta  a    0.98514 X
     Occ.   19 beta  a   ---  Virt.   35 beta  a   -0.05778 X
     Occ.   19 beta  a   ---  Virt.   36 beta  a   -0.07406 X
     Occ.   20 beta  a   ---  Virt.   25 beta  a    0.09685 X
  ----------------------------------------------------------------------------
  Root  30         a              0.254755760 a.u.                6.9323 eV 
  <S2> =   0.7708
  ----------------------------------------------------------------------------
     Transition Moments    X -1.50318   Y -0.09502   Z -0.00000
     Transition Moments   XX -0.02429  XY  0.18991  XZ -0.00942
     Transition Moments   YY  0.02355  YZ -0.00059  ZZ -0.00006
     Dipole Oscillator Strength                    0.3852872002
     Electric Quadrupole                           0.0000000032
     Magnetic Dipole                               0.0000000195
     Total Oscillator Strength                     0.3852872229
 
     Occ.   19 alpha a   ---  Virt.   22 alpha a   -0.38006 X
     Occ.   19 alpha a   ---  Virt.   22 alpha a    0.05311 Y
     Occ.   20 alpha a   ---  Virt.   23 alpha a    0.42680 X
     Occ.   20 alpha a   ---  Virt.   23 alpha a   -0.05109 Y
     Occ.   20 alpha a   ---  Virt.   29 alpha a   -0.14080 X
     Occ.   21 alpha a   ---  Virt.   25 alpha a    0.07644 X
     Occ.   21 alpha a   ---  Virt.   27 alpha a   -0.38975 X
     Occ.   13 beta  a   ---  Virt.   21 beta  a    0.12799 X
     Occ.   15 beta  a   ---  Virt.   21 beta  a    0.27042 X
     Occ.   19 beta  a   ---  Virt.   24 beta  a    0.49854 X
     Occ.   19 beta  a   ---  Virt.   29 beta  a   -0.13910 X
     Occ.   20 beta  a   ---  Virt.   22 beta  a   -0.34835 X
     Occ.   20 beta  a   ---  Virt.   22 beta  a    0.05611 Y
  ----------------------------------------------------------------------------
  Root  31         a              0.255405182 a.u.                6.9499 eV 
  <S2> =   0.8012
  ----------------------------------------------------------------------------
     Transition Moments    X -0.04057   Y  0.63620   Z  0.00186
     Transition Moments   XX  0.65017  XY -0.07811  XZ -0.00065
     Transition Moments   YY  1.88543  YZ  0.01022  ZZ  0.14654
     Dipole Oscillator Strength                    0.0691986499
     Electric Quadrupole                           0.0000000716
     Magnetic Dipole                               0.0000000000
     Total Oscillator Strength                     0.0691987215
 
     Occ.   19 alpha a   ---  Virt.   23 alpha a   -0.10547 X
     Occ.   20 alpha a   ---  Virt.   22 alpha a   -0.11460 X
     Occ.   21 alpha a   ---  Virt.   26 alpha a   -0.18450 X
     Occ.   21 alpha a   ---  Virt.   28 alpha a    0.90987 X
     Occ.   21 alpha a   ---  Virt.   30 alpha a    0.12841 X
     Occ.   21 alpha a   ---  Virt.   31 alpha a    0.16283 X
     Occ.   21 alpha a   ---  Virt.   48 alpha a   -0.05655 X
     Occ.   16 beta  a   ---  Virt.   21 beta  a   -0.18858 X
     Occ.   19 beta  a   ---  Virt.   22 beta  a   -0.10929 X
     Occ.   20 beta  a   ---  Virt.   24 beta  a   -0.09635 X
  ----------------------------------------------------------------------------
  Root  32         a              0.260750933 a.u.                7.0954 eV 
  <S2> =   0.8002
  ----------------------------------------------------------------------------
     Transition Moments    X  0.00118   Y -0.01862   Z  0.09557
     Transition Moments   XX -0.01245  XY  0.00106  XZ -0.04440
     Transition Moments   YY -0.02921  YZ  0.70481  ZZ -0.00436
     Dipole Oscillator Strength                    0.0016480678
     Electric Quadrupole                           0.0000000471
     Magnetic Dipole                               0.0000000330
     Total Oscillator Strength                     0.0016481479
 
     Occ.   21 alpha a   ---  Virt.   29 alpha a   -0.97942 X
     Occ.   21 alpha a   ---  Virt.   33 alpha a   -0.17990 X
  ----------------------------------------------------------------------------
  Root  33         a              0.265400884 a.u.                7.2219 eV 
  <S2> =   1.7807
  ----------------------------------------------------------------------------
     Transition Moments    X -0.00128   Y -0.00008   Z  0.00000
     Transition Moments   XX -0.00007  XY  0.00053  XZ  0.54580
     Transition Moments   YY  0.00008  YZ  0.03439  ZZ  0.00001
     Dipole Oscillator Strength                    0.0000002910
     Electric Quadrupole                           0.0000000298
     Magnetic Dipole                               0.0000000006
     Total Oscillator Strength                     0.0000003214
 
     Occ.   20 beta  a   ---  Virt.   27 beta  a    0.99103 X
     Occ.   20 beta  a   ---  Virt.   38 beta  a   -0.09649 X
  ----------------------------------------------------------------------------
  Root  34         a              0.267189007 a.u.                7.2706 eV 
  <S2> =   0.8217
  ----------------------------------------------------------------------------
     Transition Moments    X -0.07576   Y  1.20067   Z  0.00131
     Transition Moments   XX -0.01913  XY  0.04278  XZ -0.00011
     Transition Moments   YY -0.69512  YZ  0.00174  ZZ -0.04612
     Dipole Oscillator Strength                    0.2578091207
     Electric Quadrupole                           0.0000000151
     Magnetic Dipole                               0.0000000000
     Total Oscillator Strength                     0.2578091358
 
     Occ.   17 alpha a   ---  Virt.   23 alpha a    0.08606 X
     Occ.   19 alpha a   ---  Virt.   23 alpha a   -0.30511 X
     Occ.   19 alpha a   ---  Virt.   29 alpha a   -0.16157 X
     Occ.   20 alpha a   ---  Virt.   22 alpha a   -0.22280 X
     Occ.   21 alpha a   ---  Virt.   28 alpha a   -0.30112 X
     Occ.   21 alpha a   ---  Virt.   30 alpha a    0.42756 X
     Occ.   21 alpha a   ---  Virt.   31 alpha a   -0.08015 X
     Occ.   14 beta  a   ---  Virt.   21 beta  a    0.08798 X
     Occ.   16 beta  a   ---  Virt.   21 beta  a   -0.50145 X
     Occ.   19 beta  a   ---  Virt.   22 beta  a   -0.22347 X
     Occ.   20 beta  a   ---  Virt.   24 beta  a   -0.30737 X
     Occ.   20 beta  a   ---  Virt.   29 beta  a   -0.34427 X
  ----------------------------------------------------------------------------
  Root  35         a              0.270808851 a.u.                7.3691 eV 
  <S2> =   2.7046
  ----------------------------------------------------------------------------
     Transition Moments    X  0.00019   Y -0.00308   Z -0.00955
     Transition Moments   XX  0.00657  XY  0.00067  XZ  0.00960
     Transition Moments   YY -0.00405  YZ -0.15174  ZZ  0.00106
     Dipole Oscillator Strength                    0.0000181758
     Electric Quadrupole                           0.0000000024
     Magnetic Dipole                               0.0000000000
     Total Oscillator Strength                     0.0000181783
 
     Occ.   20 alpha a   ---  Virt.   27 alpha a    0.79697 X
     Occ.   20 alpha a   ---  Virt.   38 alpha a   -0.08795 X
     Occ.   19 beta  a   ---  Virt.   27 beta  a   -0.57691 X
     Occ.   19 beta  a   ---  Virt.   38 beta  a    0.06822 X
     Occ.   20 beta  a   ---  Virt.   28 beta  a   -0.05398 X
     Occ.   20 beta  a   ---  Virt.   30 beta  a   -0.06118 X
  ----------------------------------------------------------------------------
  Root  36         a              0.271250878 a.u.                7.3811 eV 
  <S2> =   2.7407
  ----------------------------------------------------------------------------
     Transition Moments    X -0.04867   Y -0.00302   Z  0.00000
     Transition Moments   XX -0.00376  XY  0.02852  XZ -0.00381
     Transition Moments   YY  0.00373  YZ -0.00023  ZZ -0.00004
     Dipole Oscillator Strength                    0.0004300018
     Electric Quadrupole                           0.0000000001
     Magnetic Dipole                               0.0000000018
     Total Oscillator Strength                     0.0004300037
 
     Occ.   17 alpha a   ---  Virt.   22 alpha a   -0.59777 X
     Occ.   17 alpha a   ---  Virt.   41 alpha a    0.05240 X
     Occ.   19 alpha a   ---  Virt.   32 alpha a    0.08384 X
     Occ.   20 alpha a   ---  Virt.   29 alpha a   -0.16434 X
     Occ.   20 alpha a   ---  Virt.   44 alpha a    0.22728 X
     Occ.   20 alpha a   ---  Virt.   47 alpha a   -0.17405 X
     Occ.   17 beta  a   ---  Virt.   22 beta  a    0.64443 X
     Occ.   17 beta  a   ---  Virt.   41 beta  a   -0.05431 X
     Occ.   19 beta  a   ---  Virt.   29 beta  a    0.10211 X
     Occ.   19 beta  a   ---  Virt.   44 beta  a   -0.20062 X
     Occ.   19 beta  a   ---  Virt.   47 beta  a    0.16660 X
     Occ.   20 beta  a   ---  Virt.   31 beta  a   -0.10176 X
  ----------------------------------------------------------------------------
  Root  37         a              0.271750534 a.u.                7.3947 eV 
  <S2> =   1.0601
  ----------------------------------------------------------------------------
     Transition Moments    X  0.03176   Y -0.50378   Z -0.00578
     Transition Moments   XX  1.03809  XY  0.11285  XZ  0.00788
     Transition Moments   YY -0.74565  YZ -0.12529  ZZ  0.23677
     Dipole Oscillator Strength                    0.0461680178
     Electric Quadrupole                           0.0000000883
     Magnetic Dipole                               0.0000000002
     Total Oscillator Strength                     0.0461681064
 
     Occ.   17 alpha a   ---  Virt.   23 alpha a   -0.06123 X
     Occ.   19 alpha a   ---  Virt.   23 alpha a    0.08911 X
     Occ.   20 alpha a   ---  Virt.   27 alpha a    0.06081 X
     Occ.   21 alpha a   ---  Virt.   30 alpha a    0.78790 X
     Occ.   21 alpha a   ---  Virt.   31 alpha a   -0.20265 X
     Occ.   21 alpha a   ---  Virt.   35 alpha a    0.07331 X
     Occ.   21 alpha a   ---  Virt.   40 alpha a   -0.05600 X
     Occ.   14 beta  a   ---  Virt.   21 beta  a   -0.06216 X
     Occ.   16 beta  a   ---  Virt.   21 beta  a    0.18493 X
     Occ.   19 beta  a   ---  Virt.   22 beta  a    0.05714 X
     Occ.   19 beta  a   ---  Virt.   27 beta  a    0.10242 X
     Occ.   20 beta  a   ---  Virt.   24 beta  a    0.09387 X
     Occ.   20 beta  a   ---  Virt.   28 beta  a   -0.08936 X
     Occ.   20 beta  a   ---  Virt.   29 beta  a    0.48126 X
  ----------------------------------------------------------------------------
  Root  38         a              0.271808570 a.u.                7.3963 eV 
  <S2> =   0.8291
  ----------------------------------------------------------------------------
     Transition Moments    X -0.00441   Y  0.06994   Z -0.02433
     Transition Moments   XX -0.13700  XY -0.01522  XZ  0.05452
     Transition Moments   YY  0.10366  YZ -0.86364  ZZ -0.03391
     Dipole Oscillator Strength                    0.0009971351
     Electric Quadrupole                           0.0000000817
     Magnetic Dipole                               0.0000000036
     Total Oscillator Strength                     0.0009972204
 
     Occ.   20 alpha a   ---  Virt.   27 alpha a    0.57063 X
     Occ.   21 alpha a   ---  Virt.   30 alpha a   -0.10446 X
     Occ.   19 beta  a   ---  Virt.   27 beta  a    0.79396 X
     Occ.   19 beta  a   ---  Virt.   38 beta  a   -0.07444 X
     Occ.   20 beta  a   ---  Virt.   28 beta  a   -0.11770 X
     Occ.   20 beta  a   ---  Virt.   29 beta  a   -0.05963 X
  ----------------------------------------------------------------------------
  Root  39         a              0.272285594 a.u.                7.4093 eV 
  <S2> =   1.7262
  ----------------------------------------------------------------------------
     Transition Moments    X  0.00192   Y  0.00017   Z -0.00002
     Transition Moments   XX  0.00022  XY -0.00243  XZ -0.54901
     Transition Moments   YY -0.00025  YZ -0.03487  ZZ -0.00002
     Dipole Oscillator Strength                    0.0000006747
     Electric Quadrupole                           0.0000000325
     Magnetic Dipole                               0.0000000013
     Total Oscillator Strength                     0.0000007085
 
     Occ.   19 alpha a   ---  Virt.   27 alpha a   -0.99031 X
     Occ.   19 alpha a   ---  Virt.   38 alpha a    0.09593 X
  ----------------------------------------------------------------------------
  Root  40         a              0.272506531 a.u.                7.4153 eV 
  <S2> =   1.9515
  ----------------------------------------------------------------------------
     Transition Moments    X -0.00522   Y  0.08279   Z -0.04122
     Transition Moments   XX -0.12788  XY -0.01310  XZ  0.02775
     Transition Moments   YY  0.07920  YZ -0.43866  ZZ -0.01828
     Dipole Oscillator Strength                    0.0015589366
     Electric Quadrupole                           0.0000000220
     Magnetic Dipole                               0.0000000054
     Total Oscillator Strength                     0.0015589640
 
     Occ.   19 alpha a   ---  Virt.   28 alpha a    0.11666 X
     Occ.   20 alpha a   ---  Virt.   27 alpha a   -0.12592 X
     Occ.   21 alpha a   ---  Virt.   30 alpha a   -0.07448 X
     Occ.   17 beta  a   ---  Virt.   21 beta  a    0.05403 X
     Occ.   19 beta  a   ---  Virt.   27 beta  a   -0.06786 X
     Occ.   20 beta  a   ---  Virt.   28 beta  a   -0.96442 X
     Occ.   20 beta  a   ---  Virt.   30 beta  a   -0.05546 X
     Occ.   20 beta  a   ---  Virt.   32 beta  a   -0.07426 X
     Occ.   20 beta  a   ---  Virt.   43 beta  a   -0.08053 X
 
              Target root =      1
          Target symmetry = none
      Ground state energy =   -231.646324867433
        Excitation energy =      0.106293819147
     Excited state energy =   -231.540031048286
 
  stored tddft:energy   -231.540031048286     

 Task  times  cpu:     3948.1s     wall:     4043.8s
 
 
                                NWChem Input Module
                                -------------------
 
 
 Summary of allocated global arrays
-----------------------------------
  No active global arrays



                         GA Statistics for process    0
                         ------------------------------

       create   destroy   get      put      acc     scatter   gather  read&inc
calls: 9571     9571     8.87e+06 4.05e+06 1.58e+06 5670        0      282     
number of processes/call 1.36e+00 1.75e+00 1.89e+00 0.00e+00 0.00e+00
bytes total:             7.93e+10 1.10e+10 8.86e+10 6.26e+04 0.00e+00 2.26e+03
bytes remote:            5.79e+10 1.10e+09 8.46e+10 0.00e+00 0.00e+00 0.00e+00
Max memory consumed for GA by this process: 205086464 bytes
 
MA_summarize_allocated_blocks: starting scan ...
MA_summarize_allocated_blocks: scan completed: 0 heap blocks, 0 stack blocks
MA usage statistics:

	allocation statistics:
					      heap	     stack
					      ----	     -----
	current number of blocks	         0	         0
	maximum number of blocks	        20	        52
	current total bytes		         0	         0
	maximum total bytes		   1166000	  68276408
	maximum total K-bytes		      1166	     68277
	maximum total M-bytes		         2	        69
 
 
                                     CITATION
                                     --------
                Please cite the following reference when publishing
                           results obtained with NWChem:
 
                 M. Valiev, E.J. Bylaska, N. Govind, K. Kowalski,
              T.P. Straatsma, H.J.J. van Dam, D. Wang, J. Nieplocha,
                        E. Apra, T.L. Windus, W.A. de Jong
                 "NWChem: a comprehensive and scalable open-source
                  solution for large scale molecular simulations"
                      Comput. Phys. Commun. 181, 1477 (2010)
                           doi:10.1016/j.cpc.2010.04.018
 
                                      AUTHORS
                                      -------
          E. Apra, E. J. Bylaska, W. A. de Jong, N. Govind, K. Kowalski,
       T. P. Straatsma, M. Valiev, H. J. J. van Dam, D. Wang, T. L. Windus,
        J. Hammond, J. Autschbach, K. Bhaskaran-Nair, J. Brabec, K. Lopata,
    S. A. Fischer, S. Krishnamoorthy, M. Jacquelin, W. Ma, M. Klemm, O. Villa,
      Y. Chen, V. Anisimov, F. Aquino, S. Hirata, M. T. Hackler, V. Konjkov,
            D. Mejia-Rodriguez, T. Risthaus, M. Malagoli, A. Marenich,
   A. Otero-de-la-Roza, J. Mullin, P. Nichols, R. Peverati, J. Pittner, Y. Zhao,
        P.-D. Fan, A. Fonari, M. J. Williamson, R. J. Harrison, J. R. Rehr,
      M. Dupuis, D. Silverstein, D. M. A. Smith, J. Nieplocha, V. Tipparaju,
    M. Krishnan, B. E. Van Kuiken, A. Vazquez-Mayagoitia, L. Jensen, M. Swart,
      Q. Wu, T. Van Voorhis, A. A. Auer, M. Nooijen, L. D. Crosby, E. Brown,
      G. Cisneros, G. I. Fann, H. Fruchtl, J. Garza, K. Hirao, R. A. Kendall,
      J. A. Nichols, K. Tsemekhman, K. Wolinski, J. Anchell, D. E. Bernholdt,
      P. Borowski, T. Clark, D. Clerc, H. Dachsel, M. J. O. Deegan, K. Dyall,
    D. Elwood, E. Glendening, M. Gutowski, A. C. Hess, J. Jaffe, B. G. Johnson,
     J. Ju, R. Kobayashi, R. Kutteh, Z. Lin, R. Littlefield, X. Long, B. Meng,
      T. Nakajima, S. Niu, L. Pollack, M. Rosing, K. Glaesemann, G. Sandrone,
      M. Stave, H. Taylor, G. Thomas, J. H. van Lenthe, A. T. Wong, Z. Zhang.

 Total times  cpu:     3948.1s     wall:     4044.9s
