 argument  1 = /storage/home/j/jbb5516/normalModes/mode1464.22-p.nw
 


============================== echo of input deck ==============================
echo
start

title "None"

geometry
C    -0.08827910    1.38825267    0.00000005
C    -1.26697460    0.69092805   -0.00000002
C    -1.16721446   -0.70410824   -0.00000002
C     0.08197864   -1.31604845    0.00000004
C     1.24675306   -0.55319761   -0.00000001
C     1.17093795    0.84496755    0.00000005
H    -2.23120553    1.18117566   -0.00000010
H    -2.06593908   -1.30742175   -0.00000009
H     0.15487413   -2.39512571   -0.00000000
H     2.21641937   -1.03464450   -0.00000013
H     2.06673613    1.45150658   -0.00000010
symmetry c1
end

basis spherical
 * library "aug-cc-pvtz"
end

dft
 direct
 mult 2
 iterations 500
 xc b3lyp
end

tddft
 nroots 40
 notriplet
 algorithm 1
end
task tddft energy
================================================================================


                                         
                                         
 
 
              Northwest Computational Chemistry Package (NWChem) 6.8
              ------------------------------------------------------
 
 
                    Environmental Molecular Sciences Laboratory
                       Pacific Northwest National Laboratory
                                Richland, WA 99352
 
                              Copyright (c) 1994-2017
                       Pacific Northwest National Laboratory
                            Battelle Memorial Institute
 
             NWChem is an open-source computational chemistry package
                        distributed under the terms of the
                      Educational Community License (ECL) 2.0
             A copy of the license is included with this distribution
                              in the LICENSE.TXT file
 
                                  ACKNOWLEDGMENT
                                  --------------

            This software and its documentation were developed at the
            EMSL at Pacific Northwest National Laboratory, a multiprogram
            national laboratory, operated for the U.S. Department of Energy
            by Battelle under Contract Number DE-AC05-76RL01830. Support
            for this work was provided by the Department of Energy Office
            of Biological and Environmental Research, Office of Basic
            Energy Sciences, and the Office of Advanced Scientific Computing.


           Job information
           ---------------

    hostname        = comp-sc-0084.acib.production.int.aci.ics.psu.edu
    program         = /gpfs/group/lxj18/default/jeffprograms/nwchem-6.8.1/bin/LINUX64/nwchem
    date            = Sun Sep 20 16:31:27 2020

    compiled        = Wed_Oct_03_14:08:39_2018
    source          = /gpfs/group/lxj18/default/jeffprograms/nwchem-6.8.1
    nwchem branch   = 6.8.1
    nwchem revision = v6.8-143-gdb0d964
    ga revision     = 5.6.5
    use scalapack   = F
    input           = /storage/home/j/jbb5516/normalModes/mode1464.22-p.nw
    prefix          = mode1464.22-p.
    data base       = ./mode1464.22-p.db
    status          = startup
    nproc           =       20
    time left       =     -1s



           Memory information
           ------------------

    heap     =   13107200 doubles =    100.0 Mbytes
    stack    =   13107197 doubles =    100.0 Mbytes
    global   =   26214400 doubles =    200.0 Mbytes (distinct from heap & stack)
    total    =   52428797 doubles =    400.0 Mbytes
    verify   = yes
    hardfail = no 


           Directory information
           ---------------------
 
  0 permanent = .
  0 scratch   = .
 
 
 
 
                                NWChem Input Module
                                -------------------
 
 
                                       None
                                       ----

 Scaling coordinates for geometry "geometry" by  1.889725989
 (inverse scale =  0.529177249)

 Turning off AUTOSYM since
 SYMMETRY directive was detected!
 

          ------
          auto-z
          ------
 
 
                             Geometry "geometry" -> ""
                             -------------------------
 
 Output coordinates in angstroms (scale by  1.889725989 to convert to a.u.)
 
  No.       Tag          Charge          X              Y              Z
 ---- ---------------- ---------- -------------- -------------- --------------
    1 C                    6.0000    -0.08837895     1.38824647     0.00000005
    2 C                    6.0000    -1.26707445     0.69092185    -0.00000002
    3 C                    6.0000    -1.16731431    -0.70411444    -0.00000002
    4 C                    6.0000     0.08187879    -1.31605465     0.00000004
    5 C                    6.0000     1.24665321    -0.55320381    -0.00000001
    6 C                    6.0000     1.17083810     0.84496135     0.00000005
    7 H                    1.0000    -2.23130538     1.18116946    -0.00000010
    8 H                    1.0000    -2.06603893    -1.30742795    -0.00000009
    9 H                    1.0000     0.15477428    -2.39513191    -0.00000000
   10 H                    1.0000     2.21631952    -1.03465070    -0.00000013
   11 H                    1.0000     2.06663628     1.45150038    -0.00000010
 
      Atomic Mass 
      ----------- 
 
      C                 12.000000
      H                  1.007825
 

 Effective nuclear repulsion energy (a.u.)     195.0639909364

            Nuclear Dipole moment (a.u.) 
            ----------------------------
        X                 Y               Z
 ---------------- ---------------- ----------------
     0.0000000000    -0.0000000000     0.0000000000
 


                                Z-matrix (autoz)
                                -------- 

 Units are Angstrom for bonds and degrees for angles
 
      Type          Name      I     J     K     L     M      Value
      ----------- --------  ----- ----- ----- ----- ----- ----------
    1 Stretch                  1     2                       1.36952
    2 Stretch                  1     6                       1.37142
    3 Stretch                  2     3                       1.39860
    4 Stretch                  2     7                       1.08170
    5 Stretch                  3     4                       1.39103
    6 Stretch                  3     8                       1.08245
    7 Stretch                  4     5                       1.39235
    8 Stretch                  4     9                       1.08154
    9 Stretch                  5     6                       1.40022
   10 Stretch                  5    10                       1.08261
   11 Stretch                  6    11                       1.08182
   12 Bend                     1     2     3               116.51856
   13 Bend                     1     2     7               122.44082
   14 Bend                     1     6     5               116.44143
   15 Bend                     1     6    11               122.56070
   16 Bend                     2     1     6               126.05351
   17 Bend                     2     3     4               120.18908
   18 Bend                     2     3     8               119.78314
   19 Bend                     3     2     7               121.04063
   20 Bend                     3     4     5               120.67906
   21 Bend                     3     4     9               119.96343
   22 Bend                     4     3     8               120.02778
   23 Bend                     4     5     6               120.11836
   24 Bend                     4     5    10               120.37307
   25 Bend                     5     4     9               119.35751
   26 Bend                     5     6    11               120.99786
   27 Bend                     6     5    10               119.50856
   28 Torsion                  1     2     3     4           0.00000
   29 Torsion                  1     2     3     8        -180.00000
   30 Torsion                  1     6     5     4           0.00000
   31 Torsion                  1     6     5    10         180.00000
   32 Torsion                  2     1     6     5           0.00000
   33 Torsion                  2     1     6    11         180.00000
   34 Torsion                  2     3     4     5           0.00000
   35 Torsion                  2     3     4     9        -180.00000
   36 Torsion                  3     2     1     6           0.00000
   37 Torsion                  3     4     5     6           0.00000
   38 Torsion                  3     4     5    10        -180.00000
   39 Torsion                  4     3     2     7         180.00000
   40 Torsion                  4     5     6    11        -180.00000
   41 Torsion                  5     4     3     8         180.00000
   42 Torsion                  6     1     2     7        -180.00000
   43 Torsion                  6     5     4     9        -180.00000
   44 Torsion                  7     2     3     8           0.00000
   45 Torsion                  8     3     4     9           0.00000
   46 Torsion                  9     4     5    10           0.00000
   47 Torsion                 10     5     6    11           0.00000
 
 
            XYZ format geometry
            -------------------
    11
 geometry
 C                    -0.08837895     1.38824647     0.00000005
 C                    -1.26707445     0.69092185    -0.00000002
 C                    -1.16731431    -0.70411444    -0.00000002
 C                     0.08187879    -1.31605465     0.00000004
 C                     1.24665321    -0.55320381    -0.00000001
 C                     1.17083810     0.84496135     0.00000005
 H                    -2.23130538     1.18116946    -0.00000010
 H                    -2.06603893    -1.30742795    -0.00000009
 H                     0.15477428    -2.39513191    -0.00000000
 H                     2.21631952    -1.03465070    -0.00000013
 H                     2.06663628     1.45150038    -0.00000010
 
 ==============================================================================
                                internuclear distances
 ------------------------------------------------------------------------------
       center one      |      center two      | atomic units |  angstroms
 ------------------------------------------------------------------------------
    2 C                |   1 C                |     2.58802  |     1.36952
    3 C                |   2 C                |     2.64297  |     1.39860
    4 C                |   3 C                |     2.62866  |     1.39103
    5 C                |   4 C                |     2.63116  |     1.39235
    6 C                |   1 C                |     2.59160  |     1.37142
    6 C                |   5 C                |     2.64603  |     1.40022
    7 H                |   2 C                |     2.04412  |     1.08170
    8 H                |   3 C                |     2.04553  |     1.08245
    9 H                |   4 C                |     2.04381  |     1.08154
   10 H                |   5 C                |     2.04584  |     1.08261
   11 H                |   6 C                |     2.04435  |     1.08182
 ------------------------------------------------------------------------------
                         number of included internuclear distances:         11
 ==============================================================================



 ==============================================================================
                                 internuclear angles
 ------------------------------------------------------------------------------
        center 1       |       center 2       |       center 3       |  degrees
 ------------------------------------------------------------------------------
    2 C                |   1 C                |   6 C                |   126.05
    1 C                |   2 C                |   3 C                |   116.52
    1 C                |   2 C                |   7 H                |   122.44
    3 C                |   2 C                |   7 H                |   121.04
    2 C                |   3 C                |   4 C                |   120.19
    2 C                |   3 C                |   8 H                |   119.78
    4 C                |   3 C                |   8 H                |   120.03
    3 C                |   4 C                |   5 C                |   120.68
    3 C                |   4 C                |   9 H                |   119.96
    5 C                |   4 C                |   9 H                |   119.36
    4 C                |   5 C                |   6 C                |   120.12
    4 C                |   5 C                |  10 H                |   120.37
    6 C                |   5 C                |  10 H                |   119.51
    1 C                |   6 C                |   5 C                |   116.44
    1 C                |   6 C                |  11 H                |   122.56
    5 C                |   6 C                |  11 H                |   121.00
 ------------------------------------------------------------------------------
                            number of included internuclear angles:         16
 ==============================================================================





 Summary of "ao basis" -> "" (spherical)
 ------------------------------------------------------------------------------
       Tag                 Description            Shells   Functions and Types
 ---------------- ------------------------------  ------  ---------------------
 *                        aug-cc-pvtz                 on all atoms 


 
                                 NWChem DFT Module
                                 -----------------
 
 
                                       None
 
 
                      Basis "ao basis" -> "ao basis" (spherical)
                      -----
  C (Carbon)
  ----------
            Exponent  Coefficients 
       -------------- ---------------------------------------------------------
  1 S  8.23600000E+03  0.000531
  1 S  1.23500000E+03  0.004108
  1 S  2.80800000E+02  0.021087
  1 S  7.92700000E+01  0.081853
  1 S  2.55900000E+01  0.234817
  1 S  8.99700000E+00  0.434401
  1 S  3.31900000E+00  0.346129
  1 S  3.64300000E-01 -0.008983
 
  2 S  8.23600000E+03 -0.000113
  2 S  1.23500000E+03 -0.000878
  2 S  2.80800000E+02 -0.004540
  2 S  7.92700000E+01 -0.018133
  2 S  2.55900000E+01 -0.055760
  2 S  8.99700000E+00 -0.126895
  2 S  3.31900000E+00 -0.170352
  2 S  3.64300000E-01  0.598684
 
  3 S  9.05900000E-01  1.000000
 
  4 S  1.28500000E-01  1.000000
 
  5 S  4.40200000E-02  1.000000
 
  6 P  1.87100000E+01  0.014031
  6 P  4.13300000E+00  0.086866
  6 P  1.20000000E+00  0.290216
 
  7 P  3.82700000E-01  1.000000
 
  8 P  1.20900000E-01  1.000000
 
  9 P  3.56900000E-02  1.000000
 
 10 D  1.09700000E+00  1.000000
 
 11 D  3.18000000E-01  1.000000
 
 12 D  1.00000000E-01  1.000000
 
 13 F  7.61000000E-01  1.000000
 
 14 F  2.68000000E-01  1.000000
 
  H (Hydrogen)
  ------------
            Exponent  Coefficients 
       -------------- ---------------------------------------------------------
  1 S  3.38700000E+01  0.006068
  1 S  5.09500000E+00  0.045308
  1 S  1.15900000E+00  0.202822
 
  2 S  3.25800000E-01  1.000000
 
  3 S  1.02700000E-01  1.000000
 
  4 S  2.52600000E-02  1.000000
 
  5 P  1.40700000E+00  1.000000
 
  6 P  3.88000000E-01  1.000000
 
  7 P  1.02000000E-01  1.000000
 
  8 D  1.05700000E+00  1.000000
 
  9 D  2.47000000E-01  1.000000
 


 Summary of "ao basis" -> "ao basis" (spherical)
 ------------------------------------------------------------------------------
       Tag                 Description            Shells   Functions and Types
 ---------------- ------------------------------  ------  ---------------------
 C                        aug-cc-pvtz               14       46   5s4p3d2f
 H                        aug-cc-pvtz                9       23   4s3p2d




 Summary of "ao basis" -> "ao basis" (spherical)
 ------------------------------------------------------------------------------
       Tag                 Description            Shells   Functions and Types
 ---------------- ------------------------------  ------  ---------------------
 C                        aug-cc-pvtz               14       46   5s4p3d2f
 H                        aug-cc-pvtz                9       23   4s3p2d


  Caching 1-el integrals 
 
            General Information
            -------------------
          SCF calculation type: DFT
          Wavefunction type:  spin polarized.
          No. of atoms     :    11
          No. of electrons :    41
           Alpha electrons :    21
            Beta electrons :    20
          Charge           :     0
          Spin multiplicity:     2
          Use of symmetry is: off; symmetry adaption is: off
          Maximum number of iterations: 500
          This is a Direct SCF calculation.
          AO basis - number of functions:   391
                     number of shells:   129
          Convergence on energy requested:  1.00D-06
          Convergence on density requested:  1.00D-05
          Convergence on gradient requested:  5.00D-04
 
              XC Information
              --------------
                         B3LYP Method XC Potential
                     Hartree-Fock (Exact) Exchange  0.200          
                        Slater Exchange Functional  0.800 local    
                    Becke 1988 Exchange Functional  0.720 non-local
              Lee-Yang-Parr Correlation Functional  0.810          
                  VWN I RPA Correlation Functional  0.190 local    
 
             Grid Information
             ----------------
          Grid used for XC integration:  medium    
          Radial quadrature: Mura-Knowles        
          Angular quadrature: Lebedev. 
          Tag              B.-S. Rad. Rad. Pts. Rad. Cut. Ang. Pts.
          ---              ---------- --------- --------- ---------
          C                   0.70       49          15.0       434
          H                   0.35       45          17.0       434
          Grid pruning is: on 
          Number of quadrature shells:   519
          Spatial weights used:  Erf1
 
          Convergence Information
          -----------------------
          Convergence aids based upon iterative change in 
          total energy or number of iterations. 
          Levelshifting, if invoked, occurs when the 
          HOMO/LUMO gap drops below (HL_TOL):  1.00D-02
          DIIS, if invoked, will attempt to extrapolate 
          using up to (NFOCK): 10 stored Fock matrices.

                    Damping( 0%)  Levelshifting(0.5)       DIIS
                  --------------- ------------------- ---------------
          dE  on:    start            ASAP                start   
          dE off:    2 iters        500 iters           500 iters 

 
      Screening Tolerance Information
      -------------------------------
          Density screening/tol_rho:  1.00D-10
          AO Gaussian exp screening on grid/accAOfunc:  14
          CD Gaussian exp screening on grid/accCDfunc:  20
          XC Gaussian exp screening on grid/accXCfunc:  20
          Schwarz screening/accCoul:  1.00D-08

 
 WARNING : Found     7 linear dependencies 
 S eigenvalue threshold:     1.00000E-05
 Smallest S eigenvalue :     1.46403E-06
 Largest  S eigenvalue :     7.76658E-06
 

 !! The overlap matrix has   7 vectors deemed linearly dependent with
    eigenvalues:
 1.46D-06 2.24D-06 2.83D-06 3.54D-06 5.27D-06 5.95D-06 7.77D-06
 
 
      Superposition of Atomic Density Guess
      -------------------------------------
 
 Sum of atomic energies:        -228.52307259
 
      Non-variational initial energy
      ------------------------------

 Total energy =    -232.667208
 1-e energy   =    -691.328496
 2-e energy   =     263.597297
 HOMO         =      -0.183326
 LUMO         =      -0.022269
 
   Time after variat. SCF:      9.0
   Time prior to 1st pass:      9.0

 Grid_pts file          = ./mode1464.22-p.gridpts.00
 Record size in doubles =  12289        No. of grid_pts per rec  =   3070
 Max. records in memory =      6        Max. recs in file   = 221012629

 Grid integrated density:      40.999766365936
 Requested integration accuracy:   0.10E-05

           Memory utilization after 1st SCF pass: 
           Heap Space remaining (MW):       12.96            12961280
          Stack Space remaining (MW):       13.10            13103676

   convergence    iter        energy       DeltaE   RMS-Dens  Diis-err    time
 ---------------- ----- ----------------- --------- --------- ---------  ------
 d= 0,ls=0.0,diis     1   -231.5813986938 -4.27D+02  6.06D-02  2.09D-01    19.7
                                                     6.84D-02  1.96D-01
 d= 0,ls=0.0,diis     2   -231.6398670125 -5.85D-02  5.96D-02  1.21D-02    30.4
                                                     6.73D-02  1.24D-02
 d= 0,ls=0.0,diis     3   -231.6445991052 -4.73D-03  1.26D-03  3.45D-03    41.2
                                                     1.37D-03  3.51D-03
 d= 0,ls=0.0,diis     4   -231.6457634184 -1.16D-03  2.02D-04  1.12D-03    52.0
                                                     2.06D-04  1.06D-03
 d= 0,ls=0.0,diis     5   -231.6462782356 -5.15D-04  3.36D-05  4.34D-05    62.8
                                                     3.07D-05  4.94D-05
  Resetting Diis
 d= 0,ls=0.0,diis     6   -231.6463059446 -2.77D-05  1.08D-05  9.19D-06    73.6
                                                     1.04D-05  7.65D-06
 d= 0,ls=0.0,diis     7   -231.6463126409 -6.70D-06  7.72D-06  2.42D-06    84.4
                                                     6.97D-06  2.61D-06
 d= 0,ls=0.0,diis     8   -231.6463132699 -6.29D-07  3.18D-06  6.70D-06    95.3
                                                     2.91D-06  6.11D-06


         Total DFT energy =     -231.646313269920
      One electron energy =     -696.563912134019
           Coulomb energy =      304.262922529326
    Exchange-Corr. energy =      -34.409314601588
 Nuclear repulsion energy =      195.063990936361

 Numeric. integr. density =       40.999984413632

     Total iterative time =     86.3s


 
                    DFT Final Alpha Molecular Orbital Analysis
                    ------------------------------------------
 
 Vector    1  Occ=1.000000D+00  E=-1.020520D+01
              MO Center= -8.8D-02,  1.4D+00,  4.8D-08, r^2= 3.0D-02
   Bfn.  Coefficient  Atom+Function         Bfn.  Coefficient  Atom+Function  
  ----- ------------  ---------------      ----- ------------  ---------------
     1      0.984157   1 C  s                 3      0.058846   1 C  s         
    50     -0.038960   2 C  s               143      0.037887   4 C  s         
   279      0.038033   7 H  s               234     -0.037826   6 C  s         
   371      0.037871  11 H  s                51     -0.031003   2 C  s         
   235     -0.030349   6 C  s                47      0.025519   2 C  s         
 
 Vector    2  Occ=1.000000D+00  E=-1.019187D+01
              MO Center=  1.2D+00, -4.9D-01, -1.2D-08, r^2= 2.0D-01
   Bfn.  Coefficient  Atom+Function         Bfn.  Coefficient  Atom+Function  
  ----- ------------  ---------------      ----- ------------  ---------------
   185      0.953952   5 C  s               231      0.221362   6 C  s         
    93      0.110895   3 C  s               142     -0.077872   4 C  s         
   348      0.058746  10 H  s               187      0.056996   5 C  s         
    50      0.050858   2 C  s               139      0.046638   4 C  s         
   279     -0.041165   7 H  s                51      0.039473   2 C  s         
 
 Vector    3  Occ=1.000000D+00  E=-1.019179D+01
              MO Center= -1.1D+00, -6.4D-01, -2.4D-08, r^2= 1.9D-01
   Bfn.  Coefficient  Atom+Function         Bfn.  Coefficient  Atom+Function  
  ----- ------------  ---------------      ----- ------------  ---------------
    93      0.957348   3 C  s                47      0.206805   2 C  s         
   185     -0.105041   5 C  s               142     -0.061460   4 C  s         
   302      0.060481   8 H  s                95      0.057127   3 C  s         
   234      0.057223   6 C  s               371     -0.047328  11 H  s         
   235      0.046540   6 C  s               231     -0.043721   6 C  s         
 
 Vector    4  Occ=1.000000D+00  E=-1.019054D+01
              MO Center=  1.2D+00,  7.7D-01,  4.5D-08, r^2= 1.3D-01
   Bfn.  Coefficient  Atom+Function         Bfn.  Coefficient  Atom+Function  
  ----- ------------  ---------------      ----- ------------  ---------------
   231      0.959331   6 C  s               185     -0.221666   5 C  s         
   371      0.058406  11 H  s               233      0.055772   6 C  s         
    97      0.039081   3 C  s                96      0.034315   3 C  s         
   143      0.032544   4 C  s                12     -0.030617   1 C  px        
   189     -0.030287   5 C  s                 4     -0.029332   1 C  s         
 
 Vector    5  Occ=1.000000D+00  E=-1.019033D+01
              MO Center= -1.3D+00,  6.3D-01, -2.4D-08, r^2= 1.1D-01
   Bfn.  Coefficient  Atom+Function         Bfn.  Coefficient  Atom+Function  
  ----- ------------  ---------------      ----- ------------  ---------------
    47      0.963408   2 C  s                93     -0.203723   3 C  s         
   279      0.058596   7 H  s                49      0.056078   2 C  s         
   189      0.039997   5 C  s               188      0.036427   5 C  s         
    97     -0.031678   3 C  s                12      0.031165   1 C  px        
   143      0.031134   4 C  s                51     -0.030523   2 C  s         
 
 Vector    6  Occ=1.000000D+00  E=-1.018446D+01
              MO Center=  8.2D-02, -1.3D+00,  3.9D-08, r^2= 3.5D-02
   Bfn.  Coefficient  Atom+Function         Bfn.  Coefficient  Atom+Function  
  ----- ------------  ---------------      ----- ------------  ---------------
   139      0.984214   4 C  s               141      0.057789   4 C  s         
   188     -0.046895   5 C  s               325      0.045934   9 H  s         
    96     -0.044863   3 C  s               143     -0.043454   4 C  s         
    93     -0.040847   3 C  s                 4      0.040395   1 C  s         
   185     -0.040055   5 C  s               151      0.036000   4 C  py        
 
 Vector    7  Occ=1.000000D+00  E=-8.724999D-01
              MO Center= -1.2D-02,  9.9D-02,  5.0D-09, r^2= 2.0D+00
   Bfn.  Coefficient  Atom+Function         Bfn.  Coefficient  Atom+Function  
  ----- ------------  ---------------      ----- ------------  ---------------
     2      0.213916   1 C  s                48      0.203558   2 C  s         
   232      0.201922   6 C  s                94      0.196253   3 C  s         
   186      0.194822   5 C  s               140      0.188315   4 C  s         
    50      0.090519   2 C  s               234      0.089862   6 C  s         
    96      0.088028   3 C  s               188      0.088179   5 C  s         
 
 Vector    8  Occ=1.000000D+00  E=-7.627826D-01
              MO Center= -7.7D-04,  1.0D-01,  1.6D-09, r^2= 2.8D+00
   Bfn.  Coefficient  Atom+Function         Bfn.  Coefficient  Atom+Function  
  ----- ------------  ---------------      ----- ------------  ---------------
    48      0.251590   2 C  s               232     -0.250506   6 C  s         
   186     -0.245147   5 C  s                94      0.242119   3 C  s         
    50      0.146469   2 C  s               234     -0.146050   6 C  s         
   279     -0.130116   7 H  s               371      0.128676  11 H  s         
   150     -0.115539   4 C  px               97      0.111006   3 C  s         
 
 Vector    9  Occ=1.000000D+00  E=-7.537702D-01
              MO Center=  6.1D-03, -1.5D-01, -2.7D-08, r^2= 2.6D+00
   Bfn.  Coefficient  Atom+Function         Bfn.  Coefficient  Atom+Function  
  ----- ------------  ---------------      ----- ------------  ---------------
   140     -0.301126   4 C  s                 2      0.278289   1 C  s         
    94     -0.150867   3 C  s               232      0.149595   6 C  s         
    48      0.146741   2 C  s               142     -0.147393   4 C  s         
   186     -0.146555   5 C  s               188     -0.106177   5 C  s         
    96     -0.103491   3 C  s                 4      0.102913   1 C  s         
 
 Vector   10  Occ=1.000000D+00  E=-6.187719D-01
              MO Center= -2.1D-03,  3.8D-02, -1.0D-08, r^2= 3.6D+00
   Bfn.  Coefficient  Atom+Function         Bfn.  Coefficient  Atom+Function  
  ----- ------------  ---------------      ----- ------------  ---------------
    94     -0.209419   3 C  s               186      0.207923   5 C  s         
   232     -0.200201   6 C  s                48      0.198515   2 C  s         
   234     -0.184490   6 C  s                50      0.182233   2 C  s         
    96     -0.146993   3 C  s               188      0.146978   5 C  s         
     6     -0.127193   1 C  px              144      0.117046   4 C  px        
 
 Vector   11  Occ=1.000000D+00  E=-6.035721D-01
              MO Center=  7.6D-03, -8.6D-02, -3.1D-08, r^2= 3.5D+00
   Bfn.  Coefficient  Atom+Function         Bfn.  Coefficient  Atom+Function  
  ----- ------------  ---------------      ----- ------------  ---------------
   142      0.258345   4 C  s                 2      0.239056   1 C  s         
   140      0.218584   4 C  s                 4      0.198634   1 C  s         
   186     -0.139799   5 C  s                94     -0.137066   3 C  s         
    50     -0.122994   2 C  s               188     -0.121927   5 C  s         
   234     -0.122430   6 C  s                96     -0.116604   3 C  s         
 
 Vector   12  Occ=1.000000D+00  E=-5.277715D-01
              MO Center=  5.1D-03, -1.5D-01, -1.1D-08, r^2= 4.1D+00
   Bfn.  Coefficient  Atom+Function         Bfn.  Coefficient  Atom+Function  
  ----- ------------  ---------------      ----- ------------  ---------------
   148      0.159345   4 C  py              145      0.138882   4 C  py        
   324     -0.126824   9 H  s                55      0.105569   2 C  px        
   240     -0.104729   6 C  py              323     -0.100393   9 H  s         
   237     -0.096031   6 C  py              278     -0.094629   7 H  s         
   370     -0.094314  11 H  s                10     -0.093520   1 C  py        
 
 Vector   13  Occ=1.000000D+00  E=-4.645998D-01
              MO Center= -5.2D-02,  9.5D-02, -5.0D-09, r^2= 2.8D+00
   Bfn.  Coefficient  Atom+Function         Bfn.  Coefficient  Atom+Function  
  ----- ------------  ---------------      ----- ------------  ---------------
     9      0.187015   1 C  px                6      0.173488   1 C  px        
   147      0.170513   4 C  px              144      0.157371   4 C  px        
    55     -0.133302   2 C  px              102      0.131325   3 C  py        
    56     -0.130257   2 C  py              194     -0.123898   5 C  py        
   239     -0.122445   6 C  px              193     -0.120174   5 C  px        
 
 Vector   14  Occ=1.000000D+00  E=-4.631461D-01
              MO Center=  5.6D-02, -1.5D-01, -3.8D-08, r^2= 4.7D+00
   Bfn.  Coefficient  Atom+Function         Bfn.  Coefficient  Atom+Function  
  ----- ------------  ---------------      ----- ------------  ---------------
     2      0.174811   1 C  s               301      0.138653   8 H  s         
   101     -0.134440   3 C  px              347      0.132128  10 H  s         
   140     -0.128163   4 C  s                98     -0.124570   3 C  px        
   104     -0.121912   3 C  px              188      0.121013   5 C  s         
   239     -0.114783   6 C  px              196      0.113942   5 C  px        
 
 Vector   15  Occ=1.000000D+00  E=-4.400155D-01
              MO Center= -1.5D-02,  2.1D-01, -2.5D-08, r^2= 4.0D+00
   Bfn.  Coefficient  Atom+Function         Bfn.  Coefficient  Atom+Function  
  ----- ------------  ---------------      ----- ------------  ---------------
   240      0.143631   6 C  py              102      0.139100   3 C  py        
   237      0.132565   6 C  py              278     -0.131859   7 H  s         
   370      0.130971  11 H  s                55      0.130041   2 C  px        
    99      0.130260   3 C  py               56     -0.129072   2 C  py        
   194     -0.126775   5 C  py               53     -0.119920   2 C  py        
 
 Vector   16  Occ=1.000000D+00  E=-3.990888D-01
              MO Center=  6.0D-02, -7.8D-01, -9.7D-09, r^2= 3.3D+00
   Bfn.  Coefficient  Atom+Function         Bfn.  Coefficient  Atom+Function  
  ----- ------------  ---------------      ----- ------------  ---------------
   148      0.233569   4 C  py              145      0.209192   4 C  py        
   324     -0.198446   9 H  s               151      0.172758   4 C  py        
   323     -0.153991   9 H  s                10      0.138630   1 C  py        
    13      0.120920   1 C  py              240      0.116835   6 C  py        
   194     -0.109972   5 C  py                7      0.107942   1 C  py        
 
 Vector   17  Occ=1.000000D+00  E=-3.837224D-01
              MO Center= -1.2D-02,  1.2D-01, -5.8D-08, r^2= 2.7D+00
   Bfn.  Coefficient  Atom+Function         Bfn.  Coefficient  Atom+Function  
  ----- ------------  ---------------      ----- ------------  ---------------
    11      0.173070   1 C  pz               57      0.157145   2 C  pz        
   241      0.156156   6 C  pz              103      0.152525   3 C  pz        
   195      0.151581   5 C  pz              149      0.146149   4 C  pz        
     8      0.136565   1 C  pz               54      0.126339   2 C  pz        
   238      0.125534   6 C  pz              100      0.121993   3 C  pz        
 
 Vector   18  Occ=1.000000D+00  E=-3.660150D-01
              MO Center=  6.5D-03, -1.4D-01, -2.7D-08, r^2= 4.1D+00
   Bfn.  Coefficient  Atom+Function         Bfn.  Coefficient  Atom+Function  
  ----- ------------  ---------------      ----- ------------  ---------------
   147     -0.169276   4 C  px              101      0.164933   3 C  px        
   193      0.165143   5 C  px              144     -0.159809   4 C  px        
     9      0.149357   1 C  px               98      0.149222   3 C  px        
   190      0.149258   5 C  px                6      0.141592   1 C  px        
   196      0.135224   5 C  px              104      0.133749   3 C  px        
 
 Vector   19  Occ=1.000000D+00  E=-2.685124D-01
              MO Center=  3.5D-03, -1.7D-02,  7.7D-08, r^2= 3.0D+00
   Bfn.  Coefficient  Atom+Function         Bfn.  Coefficient  Atom+Function  
  ----- ------------  ---------------      ----- ------------  ---------------
    11      0.244335   1 C  pz              149     -0.238869   4 C  pz        
     8      0.192209   1 C  pz              146     -0.190914   4 C  pz        
    14      0.175588   1 C  pz              152     -0.171907   4 C  pz        
   195     -0.136017   5 C  pz               57      0.125188   2 C  pz        
   103     -0.116085   3 C  pz              192     -0.108730   5 C  pz        
 
 Vector   20  Occ=1.000000D+00  E=-2.679202D-01
              MO Center= -2.7D-03,  6.4D-02,  2.8D-07, r^2= 3.1D+00
   Bfn.  Coefficient  Atom+Function         Bfn.  Coefficient  Atom+Function  
  ----- ------------  ---------------      ----- ------------  ---------------
   103      0.212580   3 C  pz              241     -0.210124   6 C  pz        
   195     -0.200881   5 C  pz               57      0.198083   2 C  pz        
   100      0.169428   3 C  pz              238     -0.168192   6 C  pz        
   192     -0.160063   5 C  pz               54      0.158602   2 C  pz        
   244     -0.154826   6 C  pz              106      0.153547   3 C  pz        
 
 Vector   21  Occ=1.000000D+00  E=-2.483398D-01
              MO Center= -8.2D-02,  1.3D+00,  8.3D-08, r^2= 2.3D+00
   Bfn.  Coefficient  Atom+Function         Bfn.  Coefficient  Atom+Function  
  ----- ------------  ---------------      ----- ------------  ---------------
    10      0.385908   1 C  py               13      0.337703   1 C  py        
     5      0.335469   1 C  s                 7      0.299320   1 C  py        
     4      0.279420   1 C  s                 2      0.138444   1 C  s         
   243     -0.136224   6 C  py               59     -0.134063   2 C  py        
   102      0.112103   3 C  py              194      0.112515   5 C  py        
 
 Vector   22  Occ=0.000000D+00  E=-2.605587D-02
              MO Center=  2.2D-04,  6.5D-02, -1.0D-06, r^2= 4.3D+00
   Bfn.  Coefficient  Atom+Function         Bfn.  Coefficient  Atom+Function  
  ----- ------------  ---------------      ----- ------------  ---------------
   109     -0.320902   3 C  pz              201      0.319576   5 C  pz        
   247     -0.315395   6 C  pz               63      0.312751   2 C  pz        
   244     -0.227384   6 C  pz               60      0.226025   2 C  pz        
   106     -0.224714   3 C  pz              198      0.223249   5 C  pz        
   241     -0.219571   6 C  pz               57      0.217635   2 C  pz        
 
 Vector   23  Occ=0.000000D+00  E=-1.861515D-02
              MO Center=  2.2D-03, -4.7D-02, -4.1D-06, r^2= 4.3D+00
   Bfn.  Coefficient  Atom+Function         Bfn.  Coefficient  Atom+Function  
  ----- ------------  ---------------      ----- ------------  ---------------
   155      0.439237   4 C  pz               17      0.373892   1 C  pz        
   152      0.273695   4 C  pz               11      0.259166   1 C  pz        
   149      0.250605   4 C  pz               14      0.240784   1 C  pz        
   201     -0.228148   5 C  pz              109     -0.224716   3 C  pz        
     8      0.200866   1 C  pz               63     -0.199760   2 C  pz        
 
 Vector   24  Occ=0.000000D+00  E=-1.011766D-02
              MO Center=  6.4D-02, -9.5D-01, -2.0D-06, r^2= 2.0D+01
   Bfn.  Coefficient  Atom+Function         Bfn.  Coefficient  Atom+Function  
  ----- ------------  ---------------      ----- ------------  ---------------
     5      1.445631   1 C  s               279     -0.977376   7 H  s         
   371     -0.975268  11 H  s               326     -0.741972   9 H  s         
   303     -0.729735   8 H  s               349     -0.730885  10 H  s         
   302     -0.651136   8 H  s               348     -0.649044  10 H  s         
   325     -0.588095   9 H  s                51      0.565673   2 C  s         
 
 Vector   25  Occ=0.000000D+00  E= 4.378258D-03
              MO Center=  1.5D-02, -2.6D-01, -8.4D-06, r^2= 2.7D+01
   Bfn.  Coefficient  Atom+Function         Bfn.  Coefficient  Atom+Function  
  ----- ------------  ---------------      ----- ------------  ---------------
    51      2.733224   2 C  s               235     -2.729206   6 C  s         
    97      2.671053   3 C  s               189     -2.674202   5 C  s         
   303      1.996418   8 H  s               349     -1.997478  10 H  s         
    15      1.866580   1 C  px              153      1.807412   4 C  px        
   280      1.542667   7 H  s               372     -1.536293  11 H  s         
 
 Vector   26  Occ=0.000000D+00  E= 8.724775D-03
              MO Center=  9.2D-03, -7.3D-02,  5.8D-05, r^2= 2.7D+01
   Bfn.  Coefficient  Atom+Function         Bfn.  Coefficient  Atom+Function  
  ----- ------------  ---------------      ----- ------------  ---------------
   143      6.244605   4 C  s                51     -4.008914   2 C  s         
   235     -4.008825   6 C  s               326      2.932604   9 H  s         
     5      2.588273   1 C  s               280     -2.387167   7 H  s         
   372     -2.388819  11 H  s               154      1.947984   4 C  py        
   246      1.935661   6 C  py               62      1.827961   2 C  py        
 
 Vector   27  Occ=0.000000D+00  E= 2.670382D-02
              MO Center= -2.1D-02,  2.4D-01, -1.9D-05, r^2= 3.1D+01
   Bfn.  Coefficient  Atom+Function         Bfn.  Coefficient  Atom+Function  
  ----- ------------  ---------------      ----- ------------  ---------------
   280      3.933929   7 H  s               372     -3.930001  11 H  s         
    51      3.672847   2 C  s               235     -3.641912   6 C  s         
   303     -3.608110   8 H  s               349      3.595027  10 H  s         
    61      2.226384   2 C  px              189      2.203480   5 C  s         
    97     -2.176823   3 C  s               199     -2.039591   5 C  px        
 
 Vector   28  Occ=0.000000D+00  E= 3.221428D-02
              MO Center=  4.8D-02, -6.2D-01, -1.1D-04, r^2= 2.9D+01
   Bfn.  Coefficient  Atom+Function         Bfn.  Coefficient  Atom+Function  
  ----- ------------  ---------------      ----- ------------  ---------------
     5      6.395445   1 C  s               326     -4.997103   9 H  s         
   303      3.718087   8 H  s               349      3.734275  10 H  s         
   189     -2.208238   5 C  s               154     -2.174382   4 C  py        
    97     -2.149535   3 C  s               199     -1.652820   5 C  px        
   245      1.643054   6 C  px               61     -1.571775   2 C  px        
 
 Vector   29  Occ=0.000000D+00  E= 4.329126D-02
              MO Center=  1.2D-02, -2.2D-01,  9.2D-06, r^2= 1.3D+01
   Bfn.  Coefficient  Atom+Function         Bfn.  Coefficient  Atom+Function  
  ----- ------------  ---------------      ----- ------------  ---------------
   155      0.598954   4 C  pz               63      0.577036   2 C  pz        
   247      0.575078   6 C  pz               17     -0.260317   1 C  pz        
    60     -0.155205   2 C  pz              244     -0.154958   6 C  pz        
   289     -0.123694   7 H  pz              381     -0.123417  11 H  pz        
   259      0.118948   6 C  d -1             77      0.109649   2 C  d  1      
 
 Vector   30  Occ=0.000000D+00  E= 5.495357D-02
              MO Center=  1.4D-02, -1.5D-01, -4.1D-05, r^2= 1.5D+01
   Bfn.  Coefficient  Atom+Function         Bfn.  Coefficient  Atom+Function  
  ----- ------------  ---------------      ----- ------------  ---------------
     5     10.700649   1 C  s               143      5.279114   4 C  s         
    51     -4.515584   2 C  s               235     -4.452145   6 C  s         
   349     -2.815636  10 H  s               303     -2.781900   8 H  s         
   326      2.057258   9 H  s               199      2.019711   5 C  px        
   189     -2.006483   5 C  s                97     -1.892407   3 C  s         
 
 Vector   31  Occ=0.000000D+00  E= 6.334884D-02
              MO Center= -4.1D-02,  6.5D-01, -1.1D-04, r^2= 2.8D+01
   Bfn.  Coefficient  Atom+Function         Bfn.  Coefficient  Atom+Function  
  ----- ------------  ---------------      ----- ------------  ---------------
     5     24.383313   1 C  s                51     -9.849032   2 C  s         
   235     -9.865845   6 C  s               143      7.628883   4 C  s         
   189     -6.551163   5 C  s                97     -6.471830   3 C  s         
   326      5.866635   9 H  s               154      4.772663   4 C  py        
   349     -4.696237  10 H  s               303     -4.669559   8 H  s         
 
 Vector   32  Occ=0.000000D+00  E= 6.574402D-02
              MO Center=  2.9D-03, -2.3D-02,  5.3D-04, r^2= 1.8D+01
   Bfn.  Coefficient  Atom+Function         Bfn.  Coefficient  Atom+Function  
  ----- ------------  ---------------      ----- ------------  ---------------
   201     -0.977660   5 C  pz              109      0.972524   3 C  pz        
    63      0.774062   2 C  pz              247     -0.769377   6 C  pz        
   169     -0.677154   4 C  d  1             31     -0.583249   1 C  d  1      
   106      0.494252   3 C  pz               60      0.489296   2 C  pz        
   198     -0.489806   5 C  pz              244     -0.488022   6 C  pz        
 
 Vector   33  Occ=0.000000D+00  E= 6.825407D-02
              MO Center= -1.3D-02,  1.9D-01, -2.8D-04, r^2= 1.8D+01
   Bfn.  Coefficient  Atom+Function         Bfn.  Coefficient  Atom+Function  
  ----- ------------  ---------------      ----- ------------  ---------------
    63      1.024077   2 C  pz              247      1.025876   6 C  pz        
   109     -0.813414   3 C  pz              201     -0.806107   5 C  pz        
   155     -0.753961   4 C  pz               14      0.629158   1 C  pz        
   152     -0.618246   4 C  pz               17      0.456663   1 C  pz        
   213     -0.441920   5 C  d -1            121     -0.413066   3 C  d -1      
 
 Vector   34  Occ=0.000000D+00  E= 7.645248D-02
              MO Center=  3.0D-02, -1.6D-01, -1.2D-04, r^2= 3.4D+01
   Bfn.  Coefficient  Atom+Function         Bfn.  Coefficient  Atom+Function  
  ----- ------------  ---------------      ----- ------------  ---------------
    51     13.886063   2 C  s               235    -13.848160   6 C  s         
    97     12.414417   3 C  s               189    -12.406412   5 C  s         
    15      7.677878   1 C  px              153      7.710390   4 C  px        
   107      4.759850   3 C  px              303      4.684865   8 H  s         
   349     -4.696306  10 H  s               199      4.466177   5 C  px        
 
 Vector   35  Occ=0.000000D+00  E= 7.791071D-02
              MO Center=  2.0D-01, -3.3D+00,  1.3D-04, r^2= 2.1D+01
   Bfn.  Coefficient  Atom+Function         Bfn.  Coefficient  Atom+Function  
  ----- ------------  ---------------      ----- ------------  ---------------
   143     18.273781   4 C  s                51    -13.420468   2 C  s         
   235    -13.465978   6 C  s               326      7.028923   9 H  s         
   246      5.688689   6 C  py               62      5.642666   2 C  py        
   200      5.430281   5 C  py              154      5.278995   4 C  py        
   108      5.004681   3 C  py              371      4.214824  11 H  s         
 
 Vector   36  Occ=0.000000D+00  E= 8.154812D-02
              MO Center= -9.8D-02,  1.4D+00,  7.3D-05, r^2= 2.8D+01
   Bfn.  Coefficient  Atom+Function         Bfn.  Coefficient  Atom+Function  
  ----- ------------  ---------------      ----- ------------  ---------------
   143     20.702442   4 C  s                51     -8.943123   2 C  s         
   235     -8.934984   6 C  s               246      5.279348   6 C  py        
    62      5.144739   2 C  py              325     -4.964347   9 H  s         
   280     -4.568940   7 H  s               372     -4.559539  11 H  s         
   200      4.516965   5 C  py              326      4.497149   9 H  s         
 
 Vector   37  Occ=0.000000D+00  E= 8.316791D-02
              MO Center=  3.9D-02, -7.3D-01, -9.6D-06, r^2= 2.2D+01
   Bfn.  Coefficient  Atom+Function         Bfn.  Coefficient  Atom+Function  
  ----- ------------  ---------------      ----- ------------  ---------------
    97      4.962969   3 C  s               189     -4.928233   5 C  s         
    51     -3.194059   2 C  s               235      3.071032   6 C  s         
   108      2.820668   3 C  py              303      2.805918   8 H  s         
   349     -2.806386  10 H  s               200     -2.653081   5 C  py        
   153      2.603390   4 C  px               96      2.093421   3 C  s         
 
 Vector   38  Occ=0.000000D+00  E= 9.540173D-02
              MO Center= -6.0D-02,  8.8D-01,  1.3D-05, r^2= 3.1D+01
   Bfn.  Coefficient  Atom+Function         Bfn.  Coefficient  Atom+Function  
  ----- ------------  ---------------      ----- ------------  ---------------
    51     17.710601   2 C  s               235    -17.642775   6 C  s         
   280      7.216884   7 H  s               372     -7.216116  11 H  s         
   189      6.941212   5 C  s                97     -6.870781   3 C  s         
   108     -6.481242   3 C  py              303     -6.210543   8 H  s         
   349      6.191649  10 H  s               200      5.893945   5 C  py        
 
 Vector   39  Occ=0.000000D+00  E= 1.017971D-01
              MO Center= -1.0D-02,  1.1D-01, -3.3D-04, r^2= 1.9D+01
   Bfn.  Coefficient  Atom+Function         Bfn.  Coefficient  Atom+Function  
  ----- ------------  ---------------      ----- ------------  ---------------
   235    -13.795060   6 C  s                51     13.684000   2 C  s         
    97     10.874426   3 C  s               189    -10.892291   5 C  s         
    15     10.002585   1 C  px              153      9.718645   4 C  px        
   246     -6.064618   6 C  py              108     -6.009819   3 C  py        
   200      6.006952   5 C  py               62      5.937646   2 C  py        
 
 Vector   40  Occ=0.000000D+00  E= 1.064716D-01
              MO Center= -8.8D-03,  1.3D-01, -5.6D-04, r^2= 2.1D+01
   Bfn.  Coefficient  Atom+Function         Bfn.  Coefficient  Atom+Function  
  ----- ------------  ---------------      ----- ------------  ---------------
   143     18.280274   4 C  s                51     -9.917308   2 C  s         
   235     -9.961571   6 C  s                 5     -9.462639   1 C  s         
   107     -8.753107   3 C  px              199      7.976575   5 C  px        
   245     -7.048333   6 C  px              200      6.772590   5 C  py        
    61      6.486361   2 C  px              108      5.631025   3 C  py        
 
 Vector   41  Occ=0.000000D+00  E= 1.081988D-01
              MO Center= -2.2D-02,  1.6D-01, -8.9D-05, r^2= 2.2D+01
   Bfn.  Coefficient  Atom+Function         Bfn.  Coefficient  Atom+Function  
  ----- ------------  ---------------      ----- ------------  ---------------
   109     -3.423064   3 C  pz               63      3.396774   2 C  pz        
   247     -3.384810   6 C  pz              201      3.303979   5 C  pz        
    60      0.700742   2 C  pz              244     -0.692008   6 C  pz        
   106     -0.652113   3 C  pz              198      0.622206   5 C  pz        
    77     -0.379636   2 C  d  1            215      0.351540   5 C  d  1      
 
 Vector   42  Occ=0.000000D+00  E= 1.089649D-01
              MO Center=  3.8D-02, -4.7D-01,  2.2D-03, r^2= 2.1D+01
   Bfn.  Coefficient  Atom+Function         Bfn.  Coefficient  Atom+Function  
  ----- ------------  ---------------      ----- ------------  ---------------
   155      5.322062   4 C  pz              201     -3.489152   5 C  pz        
   109     -3.400142   3 C  pz               17      2.509011   1 C  pz        
   152      0.982806   4 C  pz              198     -0.610793   5 C  pz        
   106     -0.596410   3 C  pz              167      0.569582   4 C  d -1      
    63     -0.521660   2 C  pz               14      0.505008   1 C  pz        
 
 Vector   43  Occ=0.000000D+00  E= 1.094935D-01
              MO Center=  4.4D-02, -4.5D-01, -1.2D-03, r^2= 2.7D+01
   Bfn.  Coefficient  Atom+Function         Bfn.  Coefficient  Atom+Function  
  ----- ------------  ---------------      ----- ------------  ---------------
   326      7.669739   9 H  s               154      7.055348   4 C  py        
   349     -6.498726  10 H  s               303     -6.456495   8 H  s         
   143     -5.600305   4 C  s               108     -4.453076   3 C  py        
   200     -4.158172   5 C  py              246     -4.173582   6 C  py        
    62     -4.120016   2 C  py                4      3.925116   1 C  s         
 
 Vector   44  Occ=0.000000D+00  E= 1.177944D-01
              MO Center= -3.7D-02,  6.5D-01, -4.2D-04, r^2= 1.4D+01
   Bfn.  Coefficient  Atom+Function         Bfn.  Coefficient  Atom+Function  
  ----- ------------  ---------------      ----- ------------  ---------------
    17      6.876973   1 C  pz               63     -6.019800   2 C  pz        
   247     -6.020616   6 C  pz              109      5.047374   3 C  pz        
   201      5.051157   5 C  pz              155     -4.819472   4 C  pz        
    14      1.235249   1 C  pz               60     -1.020390   2 C  pz        
   244     -1.019341   6 C  pz              106      0.891973   3 C  pz        
 
 Vector   45  Occ=0.000000D+00  E= 1.264036D-01
              MO Center= -2.1D-02,  2.9D-01, -2.0D-05, r^2= 2.5D+01
   Bfn.  Coefficient  Atom+Function         Bfn.  Coefficient  Atom+Function  
  ----- ------------  ---------------      ----- ------------  ---------------
    51      7.644843   2 C  s               235     -7.534076   6 C  s         
   107      7.211928   3 C  px              199      7.123068   5 C  px        
   245     -7.045302   6 C  px               61     -6.923364   2 C  px        
    15      6.447433   1 C  px              189      6.238236   5 C  s         
    97     -6.146861   3 C  s               153     -5.818441   4 C  px        
 
 Vector   46  Occ=0.000000D+00  E= 1.274467D-01
              MO Center= -1.3D-02,  1.9D-01,  1.3D-04, r^2= 2.6D+01
   Bfn.  Coefficient  Atom+Function         Bfn.  Coefficient  Atom+Function  
  ----- ------------  ---------------      ----- ------------  ---------------
   154     -8.032334   4 C  py               16      7.428143   1 C  py        
   108      6.896754   3 C  py               62     -6.591730   2 C  py        
   200      6.568911   5 C  py              246     -6.371120   6 C  py        
   326     -4.050101   9 H  s                 5      3.558671   1 C  s         
   303      3.165205   8 H  s               349      3.163768  10 H  s         
 
 Vector   47  Occ=0.000000D+00  E= 1.609418D-01
              MO Center= -1.3D-02,  1.4D-01,  9.1D-05, r^2= 1.7D+01
   Bfn.  Coefficient  Atom+Function         Bfn.  Coefficient  Atom+Function  
  ----- ------------  ---------------      ----- ------------  ---------------
    17      8.196872   1 C  pz               63     -8.022575   2 C  pz        
   247     -7.992002   6 C  pz              155     -7.858174   4 C  pz        
   109      7.787050   3 C  pz              201      7.758858   5 C  pz        
    60     -1.196715   2 C  pz              106      1.196429   3 C  pz        
   198      1.188827   5 C  pz              244     -1.188852   6 C  pz        
 
 Vector   48  Occ=0.000000D+00  E= 1.660234D-01
              MO Center= -8.3D-02,  1.4D+00,  3.2D-04, r^2= 2.2D+01
   Bfn.  Coefficient  Atom+Function         Bfn.  Coefficient  Atom+Function  
  ----- ------------  ---------------      ----- ------------  ---------------
     5     59.202086   1 C  s                51    -26.052513   2 C  s         
   143     25.972972   4 C  s               235    -25.913562   6 C  s         
   189    -14.617786   5 C  s                97    -14.206682   3 C  s         
   154      7.429026   4 C  py              245      6.803988   6 C  px        
    61     -6.414204   2 C  px              326      6.155097   9 H  s         
 
 Vector   49  Occ=0.000000D+00  E= 1.754190D-01
              MO Center=  2.5D-02, -3.9D-01, -1.7D-04, r^2= 1.1D+01
   Bfn.  Coefficient  Atom+Function         Bfn.  Coefficient  Atom+Function  
  ----- ------------  ---------------      ----- ------------  ---------------
   335      1.104687   9 H  pz              312      1.079586   8 H  pz        
   358      1.079190  10 H  pz              289      0.972678   7 H  pz        
   381      0.972840  11 H  pz               17      0.953361   1 C  pz        
    63     -0.880361   2 C  pz              247     -0.877564   6 C  pz        
   106     -0.847400   3 C  pz              198     -0.840493   5 C  pz        
 
 Vector   50  Occ=0.000000D+00  E= 1.864103D-01
              MO Center=  2.3D-02, -5.5D-01,  9.4D-05, r^2= 1.5D+01
   Bfn.  Coefficient  Atom+Function         Bfn.  Coefficient  Atom+Function  
  ----- ------------  ---------------      ----- ------------  ---------------
     5     15.537471   1 C  s               189     -7.361135   5 C  s         
    97     -7.194099   3 C  s               235     -4.676752   6 C  s         
   325      4.420122   9 H  s                51     -4.321605   2 C  s         
    62     -4.034705   2 C  py              154      3.992159   4 C  py        
   246     -3.824540   6 C  py              348      3.320027  10 H  s         
 
 Vector   51  Occ=0.000000D+00  E= 1.980341D-01
              MO Center=  4.7D-02,  4.7D-01,  3.6D-04, r^2= 2.3D+01
   Bfn.  Coefficient  Atom+Function         Bfn.  Coefficient  Atom+Function  
  ----- ------------  ---------------      ----- ------------  ---------------
   235    -46.337907   6 C  s                51     42.732930   2 C  s         
    97     25.721355   3 C  s               189    -24.627029   5 C  s         
    15     18.487496   1 C  px              153     17.024646   4 C  px        
   302    -14.182651   8 H  s               348     13.792219  10 H  s         
   200      9.930887   5 C  py              371      8.649928  11 H  s         
 
 Vector   52  Occ=0.000000D+00  E= 1.984354D-01
              MO Center= -2.6D-02, -7.3D-01, -5.1D-04, r^2= 2.3D+01
   Bfn.  Coefficient  Atom+Function         Bfn.  Coefficient  Atom+Function  
  ----- ------------  ---------------      ----- ------------  ---------------
   143     61.246353   4 C  s                51    -36.894394   2 C  s         
   235    -32.086914   6 C  s               325    -16.836606   9 H  s         
   246     14.650570   6 C  py               62     14.434031   2 C  py        
   200     13.358647   5 C  py              108     12.905036   3 C  py        
     5    -11.565343   1 C  s               279     11.511733   7 H  s         
 
 Vector   53  Occ=0.000000D+00  E= 2.154043D-01
              MO Center=  1.2D-01, -1.4D+00, -4.2D-05, r^2= 1.5D+01
   Bfn.  Coefficient  Atom+Function         Bfn.  Coefficient  Atom+Function  
  ----- ------------  ---------------      ----- ------------  ---------------
   189    -14.061626   5 C  s                97     13.604316   3 C  s         
   188     -6.610043   5 C  s                96      6.440608   3 C  s         
   153      6.344034   4 C  px              371      5.401447  11 H  s         
   279     -4.856950   7 H  s               303      4.793199   8 H  s         
   349     -4.635398  10 H  s                62      4.548055   2 C  py        
 
 Vector   54  Occ=0.000000D+00  E= 2.182594D-01
              MO Center= -2.2D-02, -3.0D-01, -1.3D-04, r^2= 1.5D+01
   Bfn.  Coefficient  Atom+Function         Bfn.  Coefficient  Atom+Function  
  ----- ------------  ---------------      ----- ------------  ---------------
   143     25.582508   4 C  s               235    -19.150087   6 C  s         
    51    -16.167703   2 C  s                 5     15.897611   1 C  s         
    16     -6.385723   1 C  py              325     -6.000989   9 H  s         
    62      4.850376   2 C  py              246      4.645523   6 C  py        
   200      4.031783   5 C  py               97     -3.984827   3 C  s         
 
 Vector   55  Occ=0.000000D+00  E= 2.191055D-01
              MO Center=  2.8D-02, -7.8D-02,  1.0D-03, r^2= 1.5D+01
   Bfn.  Coefficient  Atom+Function         Bfn.  Coefficient  Atom+Function  
  ----- ------------  ---------------      ----- ------------  ---------------
    51     21.252592   2 C  s               235    -18.231521   6 C  s         
   108     -8.702213   3 C  py              200      7.769966   5 C  py        
    15      7.480972   1 C  px              302     -6.922634   8 H  s         
   348      6.906096  10 H  s               153      6.278353   4 C  px        
   246     -4.422363   6 C  py              199     -3.596022   5 C  px        
 
 Vector   56  Occ=0.000000D+00  E= 2.301222D-01
              MO Center= -2.8D-02,  2.9D-01,  1.9D-03, r^2= 1.8D+01
   Bfn.  Coefficient  Atom+Function         Bfn.  Coefficient  Atom+Function  
  ----- ------------  ---------------      ----- ------------  ---------------
   199      4.994503   5 C  px              107      4.557295   3 C  px        
   153     -3.563930   4 C  px              234      3.309116   6 C  s         
    50     -3.230724   2 C  s               349     -3.175631  10 H  s         
   303      3.146319   8 H  s                15     -2.624665   1 C  px        
   108      2.518891   3 C  py              150      1.952727   4 C  px        
 
 Vector   57  Occ=0.000000D+00  E= 2.311932D-01
              MO Center= -2.7D-04,  2.1D-03, -3.8D-03, r^2= 1.6D+01
   Bfn.  Coefficient  Atom+Function         Bfn.  Coefficient  Atom+Function  
  ----- ------------  ---------------      ----- ------------  ---------------
   106      2.145439   3 C  pz              198     -2.138546   5 C  pz        
    60      2.052201   2 C  pz              244     -2.043430   6 C  pz        
   312     -1.816447   8 H  pz              358      1.819599  10 H  pz        
   289     -1.723128   7 H  pz              381      1.718200  11 H  pz        
   169     -1.379378   4 C  d  1             31     -1.247652   1 C  d  1      
 
 Vector   58  Occ=0.000000D+00  E= 2.354119D-01
              MO Center= -4.2D-03,  2.1D-01,  5.3D-04, r^2= 1.6D+01
   Bfn.  Coefficient  Atom+Function         Bfn.  Coefficient  Atom+Function  
  ----- ------------  ---------------      ----- ------------  ---------------
   143     14.929936   4 C  s               235    -11.638974   6 C  s         
    51     -9.297979   2 C  s               107     -8.228468   3 C  px        
   199      7.677970   5 C  px               61      5.443539   2 C  px        
   245     -5.321766   6 C  px              303     -4.581445   8 H  s         
   349     -4.251309  10 H  s               200      4.188390   5 C  py        
 
 Vector   59  Occ=0.000000D+00  E= 2.365044D-01
              MO Center= -1.9D-02,  7.2D-02,  9.4D-04, r^2= 1.7D+01
   Bfn.  Coefficient  Atom+Function         Bfn.  Coefficient  Atom+Function  
  ----- ------------  ---------------      ----- ------------  ---------------
    97    -33.093667   3 C  s               189     33.204855   5 C  s         
    51     31.670029   2 C  s               235    -31.335444   6 C  s         
    96    -14.567855   3 C  s               188     14.175267   5 C  s         
   371    -10.875006  11 H  s               279     10.702683   7 H  s         
   348     10.690987  10 H  s               302    -10.596796   8 H  s         
 
 Vector   60  Occ=0.000000D+00  E= 2.434357D-01
              MO Center=  3.7D-03, -4.4D-02, -4.5D-04, r^2= 1.5D+01
   Bfn.  Coefficient  Atom+Function         Bfn.  Coefficient  Atom+Function  
  ----- ------------  ---------------      ----- ------------  ---------------
   152      3.414931   4 C  pz               14     -3.023850   1 C  pz        
   289      2.170173   7 H  pz              381      2.171236  11 H  pz        
   335     -2.124830   9 H  pz               77     -1.990748   2 C  d  1      
   261      1.995626   6 C  d  1             63     -1.599046   2 C  pz        
   247     -1.599009   6 C  pz              155      1.372235   4 C  pz        
 
 Vector   61  Occ=0.000000D+00  E= 2.594893D-01
              MO Center=  5.6D-02, -6.0D-01,  6.5D-05, r^2= 1.7D+01
   Bfn.  Coefficient  Atom+Function         Bfn.  Coefficient  Atom+Function  
  ----- ------------  ---------------      ----- ------------  ---------------
     5      8.742317   1 C  s               108     -6.670002   3 C  py        
   200     -6.041069   5 C  py              303     -5.187813   8 H  s         
   349     -5.184151  10 H  s               199      5.093153   5 C  px        
   197     -4.863803   5 C  py              143     -4.780080   4 C  s         
   105     -4.708594   3 C  py              154      4.379648   4 C  py        
 
 Vector   62  Occ=0.000000D+00  E= 2.620110D-01
              MO Center=  7.5D-02, -1.1D+00, -5.2D-05, r^2= 1.7D+01
   Bfn.  Coefficient  Atom+Function         Bfn.  Coefficient  Atom+Function  
  ----- ------------  ---------------      ----- ------------  ---------------
     5     18.941973   1 C  s                51    -15.444429   2 C  s         
   154     15.345514   4 C  py              143     15.156320   4 C  s         
   235    -13.665321   6 C  s               326      9.174545   9 H  s         
     4      6.008876   1 C  s               189     -5.135647   5 C  s         
   108     -4.566231   3 C  py              200     -4.461114   5 C  py        
 
 Vector   63  Occ=0.000000D+00  E= 2.676707D-01
              MO Center= -4.6D-02,  4.3D-01,  6.0D-05, r^2= 2.0D+01
   Bfn.  Coefficient  Atom+Function         Bfn.  Coefficient  Atom+Function  
  ----- ------------  ---------------      ----- ------------  ---------------
   235    -20.696338   6 C  s                51     19.666438   2 C  s         
    97    -12.019278   3 C  s               189     11.795195   5 C  s         
    61     10.893747   2 C  px              245     10.344782   6 C  px        
    96     -8.966274   3 C  s               371     -8.802472  11 H  s         
   279      8.715191   7 H  s               188      8.530976   5 C  s         
 
 Vector   64  Occ=0.000000D+00  E= 2.747868D-01
              MO Center=  2.7D-03,  2.4D-02,  6.8D-05, r^2= 1.4D+01
   Bfn.  Coefficient  Atom+Function         Bfn.  Coefficient  Atom+Function  
  ----- ------------  ---------------      ----- ------------  ---------------
   143      8.948542   4 C  s                 5      8.697603   1 C  s         
   154      5.756672   4 C  py              279     -5.742166   7 H  s         
   371     -5.564790  11 H  s               348     -4.751095  10 H  s         
   302     -4.548165   8 H  s               325     -4.359439   9 H  s         
    16     -4.027495   1 C  py               62      3.229581   2 C  py        
 
 Vector   65  Occ=0.000000D+00  E= 2.829768D-01
              MO Center= -2.2D-02,  1.8D-01, -1.9D-05, r^2= 1.6D+01
   Bfn.  Coefficient  Atom+Function         Bfn.  Coefficient  Atom+Function  
  ----- ------------  ---------------      ----- ------------  ---------------
    12      9.525564   1 C  px              189     -8.964308   5 C  s         
    97      8.829518   3 C  s               302      8.154275   8 H  s         
    51     -8.028141   2 C  s               235      8.005946   6 C  s         
   348     -8.040478  10 H  s               199      7.624484   5 C  px        
   107      7.172932   3 C  px              150      6.189128   4 C  px        
 
 Vector   66  Occ=0.000000D+00  E= 2.954293D-01
              MO Center= -1.7D-03,  5.0D-02, -2.2D-05, r^2= 1.6D+01
   Bfn.  Coefficient  Atom+Function         Bfn.  Coefficient  Atom+Function  
  ----- ------------  ---------------      ----- ------------  ---------------
    63      3.199641   2 C  pz              109     -3.190397   3 C  pz        
   201      3.187020   5 C  pz              247     -3.202641   6 C  pz        
   289     -2.278624   7 H  pz              244     -2.266015   6 C  pz        
   312      2.267470   8 H  pz              381      2.275895  11 H  pz        
   358     -2.259454  10 H  pz               60      2.247336   2 C  pz        
 
 Vector   67  Occ=0.000000D+00  E= 2.962815D-01
              MO Center= -5.7D-02,  9.6D-01,  4.1D-04, r^2= 1.4D+01
   Bfn.  Coefficient  Atom+Function         Bfn.  Coefficient  Atom+Function  
  ----- ------------  ---------------      ----- ------------  ---------------
     4     10.429038   1 C  s                59     -5.726873   2 C  py        
   243     -5.648634   6 C  py                5      5.528462   1 C  s         
   105     -5.512203   3 C  py              197     -5.157925   5 C  py        
    16      4.274906   1 C  py              279     -4.209440   7 H  s         
   371     -4.162563  11 H  s                13      3.915990   1 C  py        
 
 Vector   68  Occ=0.000000D+00  E= 3.080446D-01
              MO Center=  7.3D-02, -2.6D-01, -4.5D-04, r^2= 1.5D+01
   Bfn.  Coefficient  Atom+Function         Bfn.  Coefficient  Atom+Function  
  ----- ------------  ---------------      ----- ------------  ---------------
   155      5.178446   4 C  pz               14      4.363649   1 C  pz        
   109     -3.737218   3 C  pz              201     -3.746122   5 C  pz        
   335     -2.709678   9 H  pz               60     -2.046871   2 C  pz        
   244     -2.052392   6 C  pz              152      1.847015   4 C  pz        
    17      1.834923   1 C  pz              261     -1.731047   6 C  d  1      
 
 Vector   69  Occ=0.000000D+00  E= 3.150426D-01
              MO Center= -6.4D-02, -7.7D-02,  1.3D-05, r^2= 9.1D+00
   Bfn.  Coefficient  Atom+Function         Bfn.  Coefficient  Atom+Function  
  ----- ------------  ---------------      ----- ------------  ---------------
   261      1.215922   6 C  d  1             77      1.165206   2 C  d  1      
   169     -1.078528   4 C  d  1             75     -1.067750   2 C  d -1      
   259      0.833138   6 C  d -1            381      0.744978  11 H  pz        
   289     -0.698320   7 H  pz               31      0.631459   1 C  d  1      
    60     -0.378832   2 C  pz              215     -0.302946   5 C  d  1      
 
 Vector   70  Occ=0.000000D+00  E= 3.284581D-01
              MO Center=  4.5D-02, -6.2D-01,  6.2D-05, r^2= 1.5D+01
   Bfn.  Coefficient  Atom+Function         Bfn.  Coefficient  Atom+Function  
  ----- ------------  ---------------      ----- ------------  ---------------
   142     12.146668   4 C  s               188      8.808455   5 C  s         
    96      8.607069   3 C  s               151     -6.849346   4 C  py        
   325     -5.842253   9 H  s                 4     -5.224980   1 C  s         
   334     -5.003173   9 H  py                5      4.893292   1 C  s         
   302     -4.462239   8 H  s               243      4.308880   6 C  py        
 
 Vector   71  Occ=0.000000D+00  E= 3.347363D-01
              MO Center=  1.5D-03,  2.6D-02,  2.0D-04, r^2= 7.7D+00
   Bfn.  Coefficient  Atom+Function         Bfn.  Coefficient  Atom+Function  
  ----- ------------  ---------------      ----- ------------  ---------------
   381      2.042781  11 H  pz              289      2.022530   7 H  pz        
   335      1.841312   9 H  pz               14     -1.758396   1 C  pz        
   155     -1.721327   4 C  pz               63     -1.570613   2 C  pz        
   247     -1.561807   6 C  pz               77     -1.502531   2 C  d  1      
   261      1.410807   6 C  d  1            106     -1.294635   3 C  pz        
 
 Vector   72  Occ=0.000000D+00  E= 3.433142D-01
              MO Center=  1.6D-02, -3.9D-01, -4.4D-03, r^2= 1.2D+01
   Bfn.  Coefficient  Atom+Function         Bfn.  Coefficient  Atom+Function  
  ----- ------------  ---------------      ----- ------------  ---------------
   169      3.297453   4 C  d  1             31      2.702218   1 C  d  1      
   312     -2.476399   8 H  pz              358      2.476264  10 H  pz        
   123      2.200603   3 C  d  1            215      2.124736   5 C  d  1      
   106     -1.802781   3 C  pz              198      1.791745   5 C  pz        
   289     -1.468527   7 H  pz              381      1.397170  11 H  pz        
 
 Vector   73  Occ=0.000000D+00  E= 3.449179D-01
              MO Center= -3.1D-02,  5.6D-01, -2.2D-03, r^2= 1.2D+01
   Bfn.  Coefficient  Atom+Function         Bfn.  Coefficient  Atom+Function  
  ----- ------------  ---------------      ----- ------------  ---------------
   143     23.702972   4 C  s               325    -13.019360   9 H  s         
    51    -12.105452   2 C  s               279     12.032587   7 H  s         
   371     11.786828  11 H  s               235    -11.415295   6 C  s         
     5     -7.696924   1 C  s               197     -6.895326   5 C  py        
   105     -6.800022   3 C  py              243     -6.100783   6 C  py        
 
 Vector   74  Occ=0.000000D+00  E= 3.478174D-01
              MO Center=  3.3D-02, -1.5D-01,  4.0D-03, r^2= 1.2D+01
   Bfn.  Coefficient  Atom+Function         Bfn.  Coefficient  Atom+Function  
  ----- ------------  ---------------      ----- ------------  ---------------
    51     21.493087   2 C  s               235    -20.828908   6 C  s         
   302    -12.055349   8 H  s               348     11.894580  10 H  s         
    97     11.081445   3 C  s               189    -10.801629   5 C  s         
   371     10.244408  11 H  s               279     -9.257256   7 H  s         
    12     -8.072504   1 C  px              150     -7.052821   4 C  px        
 
 Vector   75  Occ=0.000000D+00  E= 3.481500D-01
              MO Center=  1.4D-02, -5.3D-01,  3.3D-03, r^2= 1.3D+01
   Bfn.  Coefficient  Atom+Function         Bfn.  Coefficient  Atom+Function  
  ----- ------------  ---------------      ----- ------------  ---------------
   155     -3.940374   4 C  pz               17      3.748969   1 C  pz        
   109      3.531503   3 C  pz              201      3.531670   5 C  pz        
    63     -3.422816   2 C  pz              247     -3.416582   6 C  pz        
   152     -3.004578   4 C  pz               75     -2.268809   2 C  d -1      
   289      2.271695   7 H  pz              213     -2.250689   5 C  d -1      
 
 Vector   76  Occ=0.000000D+00  E= 3.527366D-01
              MO Center=  5.4D-02, -5.2D-01, -1.8D-04, r^2= 1.4D+01
   Bfn.  Coefficient  Atom+Function         Bfn.  Coefficient  Atom+Function  
  ----- ------------  ---------------      ----- ------------  ---------------
    17      6.408682   1 C  pz               63     -5.892321   2 C  pz        
   247     -5.856545   6 C  pz              109      5.158379   3 C  pz        
   201      5.126196   5 C  pz              155     -4.870651   4 C  pz        
   335      3.946725   9 H  pz               14      3.807389   1 C  pz        
   167      3.063142   4 C  d -1             60     -2.707947   2 C  pz        
 
 Vector   77  Occ=0.000000D+00  E= 3.546354D-01
              MO Center= -8.2D-03,  3.2D-01, -6.9D-04, r^2= 1.5D+01
   Bfn.  Coefficient  Atom+Function         Bfn.  Coefficient  Atom+Function  
  ----- ------------  ---------------      ----- ------------  ---------------
     5     31.331151   1 C  s               235    -16.522947   6 C  s         
   143     15.914171   4 C  s                51    -14.974204   2 C  s         
   151    -11.084036   4 C  py              196     -7.754757   5 C  px        
    50      7.362262   2 C  s               234      7.390119   6 C  s         
   279     -7.317327   7 H  s                13      7.259553   1 C  py        
 
 Vector   78  Occ=0.000000D+00  E= 3.598957D-01
              MO Center= -3.2D-02,  7.5D-01,  2.4D-04, r^2= 1.3D+01
   Bfn.  Coefficient  Atom+Function         Bfn.  Coefficient  Atom+Function  
  ----- ------------  ---------------      ----- ------------  ---------------
   381     -3.416029  11 H  pz              289      3.394533   7 H  pz        
   244     -3.183302   6 C  pz               60      3.127772   2 C  pz        
    77     -3.068689   2 C  d  1            121     -3.071783   3 C  d -1      
   259      3.043014   6 C  d -1            213      2.803871   5 C  d -1      
   312     -2.781171   8 H  pz              358      2.749883  10 H  pz        
 
 Vector   79  Occ=0.000000D+00  E= 3.685331D-01
              MO Center=  4.0D-02, -5.7D-01, -1.5D-04, r^2= 1.3D+01
   Bfn.  Coefficient  Atom+Function         Bfn.  Coefficient  Atom+Function  
  ----- ------------  ---------------      ----- ------------  ---------------
   188     10.772143   5 C  s                96     10.679633   3 C  s         
   104     -8.567287   3 C  px              196      8.431534   5 C  px        
   142     -7.529643   4 C  s                 5      7.177358   1 C  s         
   212      5.399460   5 C  d -2            258      5.288066   6 C  d -2      
   120     -5.232087   3 C  d -2            242     -5.116564   6 C  px        
 
 Vector   80  Occ=0.000000D+00  E= 3.720778D-01
              MO Center=  3.4D-02, -3.1D-01, -2.1D-04, r^2= 1.3D+01
   Bfn.  Coefficient  Atom+Function         Bfn.  Coefficient  Atom+Function  
  ----- ------------  ---------------      ----- ------------  ---------------
   189     -9.901196   5 C  s                97      9.781336   3 C  s         
    50      9.039700   2 C  s               234     -8.998845   6 C  s         
   371      5.599961  11 H  s               279     -5.366429   7 H  s         
   357      5.231166  10 H  py              311     -5.137097   8 H  py        
    51     -5.076771   2 C  s               212     -4.876222   5 C  d -2      
 
 Vector   81  Occ=0.000000D+00  E= 3.819158D-01
              MO Center=  1.9D-02, -5.8D-01, -2.5D-06, r^2= 1.6D+01
   Bfn.  Coefficient  Atom+Function         Bfn.  Coefficient  Atom+Function  
  ----- ------------  ---------------      ----- ------------  ---------------
   166      9.070527   4 C  d -2            333      7.119975   9 H  px        
   150     -6.651875   4 C  px              216     -6.520771   5 C  d  2      
   124      6.112314   3 C  d  2            279      5.934097   7 H  s         
   371     -5.803547  11 H  s               310      5.108694   8 H  px        
   356      4.993302  10 H  px              188      4.849142   5 C  s         
 
 Vector   82  Occ=0.000000D+00  E= 3.932526D-01
              MO Center= -6.7D-02,  4.6D-01,  2.1D-04, r^2= 1.5D+01
   Bfn.  Coefficient  Atom+Function         Bfn.  Coefficient  Atom+Function  
  ----- ------------  ---------------      ----- ------------  ---------------
    12     12.203472   1 C  px              235     11.363279   6 C  s         
    51    -10.790710   2 C  s                78     -9.299215   2 C  d  2      
   262      8.536520   6 C  d  2             15     -6.842093   1 C  px        
   216      6.643746   5 C  d  2            124     -5.860592   3 C  d  2      
   153     -5.864525   4 C  px              150      5.762525   4 C  px        
 
 Vector   83  Occ=0.000000D+00  E= 3.960417D-01
              MO Center= -5.2D-02,  8.3D-01,  1.7D-04, r^2= 1.2D+01
   Bfn.  Coefficient  Atom+Function         Bfn.  Coefficient  Atom+Function  
  ----- ------------  ---------------      ----- ------------  ---------------
   152     -7.532480   4 C  pz              106      7.366095   3 C  pz        
   198      7.312398   5 C  pz               60     -6.508659   2 C  pz        
   244     -6.452764   6 C  pz              167     -6.335665   4 C  d -1      
   215      5.108847   5 C  d  1            123     -4.716924   3 C  d  1      
    14      4.575686   1 C  pz              259      4.002752   6 C  d -1      
 
 Vector   84  Occ=0.000000D+00  E= 4.017343D-01
              MO Center= -2.8D-02,  5.2D-01, -7.1D-04, r^2= 1.5D+01
   Bfn.  Coefficient  Atom+Function         Bfn.  Coefficient  Atom+Function  
  ----- ------------  ---------------      ----- ------------  ---------------
     5     51.584656   1 C  s                51    -20.307505   2 C  s         
   235    -19.145251   6 C  s               189    -17.416322   5 C  s         
    97    -17.287030   3 C  s               143     11.599309   4 C  s         
   142    -10.289635   4 C  s                 4     -9.644594   1 C  s         
   234     -7.963864   6 C  s                50     -7.876484   2 C  s         
 
 Vector   85  Occ=0.000000D+00  E= 4.052831D-01
              MO Center=  3.0D-02,  9.2D-02, -6.6D-05, r^2= 1.3D+01
   Bfn.  Coefficient  Atom+Function         Bfn.  Coefficient  Atom+Function  
  ----- ------------  ---------------      ----- ------------  ---------------
     5     33.886726   1 C  s               143     17.754419   4 C  s         
    51    -13.799668   2 C  s               235    -12.191978   6 C  s         
   188     10.306187   5 C  s                96      9.681800   3 C  s         
   189     -7.881683   5 C  s                97     -7.156491   3 C  s         
   262      7.088768   6 C  d  2             78      6.802853   2 C  d  2      
 
 Vector   86  Occ=0.000000D+00  E= 4.130636D-01
[...]
     Occ.   19 beta  a   ---  Virt.   24 beta  a   -0.21777 X
     Occ.   20 beta  a   ---  Virt.   22 beta  a    0.14260 X
  ----------------------------------------------------------------------------
  Root  27         a              0.251964152 a.u.                6.8563 eV 
  <S2> =   1.6614
  ----------------------------------------------------------------------------
     Transition Moments    X -0.00002   Y -0.00000   Z -0.24446
     Transition Moments   XX -0.00005  XY  0.00006  XZ -0.00546
     Transition Moments   YY -0.00013  YZ -0.16813  ZZ -0.00003
     Dipole Oscillator Strength                    0.0100383731
     Electric Quadrupole                           0.0000000024
     Magnetic Dipole                               0.0000000310
     Total Oscillator Strength                     0.0100384065
 
     Occ.   19 alpha a   ---  Virt.   26 alpha a   -0.97809 X
     Occ.   19 alpha a   ---  Virt.   35 alpha a    0.07086 X
     Occ.   19 alpha a   ---  Virt.   36 alpha a    0.07335 X
     Occ.   20 alpha a   ---  Virt.   25 alpha a   -0.11669 X
     Occ.   20 alpha a   ---  Virt.   26 alpha a    0.08803 X
     Occ.   20 beta  a   ---  Virt.   26 beta  a   -0.05066 X
  ----------------------------------------------------------------------------
  Root  28         a              0.252665178 a.u.                6.8754 eV 
  <S2> =   1.8939
  ----------------------------------------------------------------------------
     Transition Moments    X -0.00003   Y -0.00001   Z  0.00961
     Transition Moments   XX -0.00001  XY  0.00002  XZ -0.39235
     Transition Moments   YY -0.00007  YZ -0.02154  ZZ -0.00002
     Dipole Oscillator Strength                    0.0000155604
     Electric Quadrupole                           0.0000000133
     Magnetic Dipole                               0.0000000096
     Total Oscillator Strength                     0.0000155833
 
     Occ.   19 alpha a   ---  Virt.   25 alpha a    0.24505 X
     Occ.   19 alpha a   ---  Virt.   26 alpha a    0.08782 X
     Occ.   20 alpha a   ---  Virt.   26 alpha a    0.95668 X
     Occ.   20 alpha a   ---  Virt.   35 alpha a   -0.06130 X
     Occ.   20 alpha a   ---  Virt.   36 alpha a   -0.06524 X
     Occ.   19 beta  a   ---  Virt.   26 beta  a   -0.06747 X
  ----------------------------------------------------------------------------
  Root  29         a              0.253983790 a.u.                6.9113 eV 
  <S2> =   1.6128
  ----------------------------------------------------------------------------
     Transition Moments    X -0.00005   Y  0.00002   Z -0.00143
     Transition Moments   XX  0.00003  XY -0.00005  XZ  0.49427
     Transition Moments   YY  0.00011  YZ  0.03490  ZZ  0.00003
     Dipole Oscillator Strength                    0.0000003447
     Electric Quadrupole                           0.0000000214
     Magnetic Dipole                               0.0000000110
     Total Oscillator Strength                     0.0000003771
 
     Occ.   20 alpha a   ---  Virt.   26 alpha a   -0.07181 X
     Occ.   19 beta  a   ---  Virt.   26 beta  a   -0.98505 X
     Occ.   19 beta  a   ---  Virt.   35 beta  a    0.05778 X
     Occ.   19 beta  a   ---  Virt.   36 beta  a    0.07402 X
     Occ.   20 beta  a   ---  Virt.   25 beta  a   -0.09668 X
  ----------------------------------------------------------------------------
  Root  30         a              0.254727843 a.u.                6.9315 eV 
  <S2> =   0.7700
  ----------------------------------------------------------------------------
     Transition Moments    X  1.50153   Y  0.13815   Z -0.00002
     Transition Moments   XX  0.06794  XY -0.18685  XZ  0.00004
     Transition Moments   YY  0.03694  YZ -0.00002  ZZ  0.00854
     Dipole Oscillator Strength                    0.3861121307
     Electric Quadrupole                           0.0000000032
     Magnetic Dipole                               0.0000000177
     Total Oscillator Strength                     0.3861121515
 
     Occ.   19 alpha a   ---  Virt.   22 alpha a    0.37942 X
     Occ.   19 alpha a   ---  Virt.   22 alpha a   -0.05305 Y
     Occ.   20 alpha a   ---  Virt.   23 alpha a   -0.42660 X
     Occ.   20 alpha a   ---  Virt.   23 alpha a    0.05099 Y
     Occ.   20 alpha a   ---  Virt.   29 alpha a    0.14041 X
     Occ.   21 alpha a   ---  Virt.   25 alpha a   -0.07577 X
     Occ.   21 alpha a   ---  Virt.   27 alpha a    0.38412 X
     Occ.   13 beta  a   ---  Virt.   21 beta  a   -0.12761 X
     Occ.   15 beta  a   ---  Virt.   21 beta  a   -0.27137 X
     Occ.   19 beta  a   ---  Virt.   24 beta  a   -0.49899 X
     Occ.   19 beta  a   ---  Virt.   29 beta  a    0.13920 X
     Occ.   20 beta  a   ---  Virt.   22 beta  a    0.34900 X
     Occ.   20 beta  a   ---  Virt.   22 beta  a   -0.05619 Y
  ----------------------------------------------------------------------------
  Root  31         a              0.255327948 a.u.                6.9478 eV 
  <S2> =   0.8002
  ----------------------------------------------------------------------------
     Transition Moments    X  0.10611   Y -0.63070   Z -0.00000
     Transition Moments   XX -0.64935  XY  0.07042  XZ  0.00002
     Transition Moments   YY -1.88695  YZ -0.00003  ZZ -0.14683
     Dipole Oscillator Strength                    0.0696270104
     Electric Quadrupole                           0.0000000715
     Magnetic Dipole                               0.0000000000
     Total Oscillator Strength                     0.0696270819
 
     Occ.   19 alpha a   ---  Virt.   23 alpha a    0.10394 X
     Occ.   20 alpha a   ---  Virt.   22 alpha a    0.11346 X
     Occ.   21 alpha a   ---  Virt.   26 alpha a    0.18430 X
     Occ.   21 alpha a   ---  Virt.   28 alpha a   -0.90937 X
     Occ.   21 alpha a   ---  Virt.   30 alpha a   -0.12814 X
     Occ.   21 alpha a   ---  Virt.   31 alpha a   -0.16282 X
     Occ.   21 alpha a   ---  Virt.   48 alpha a    0.05650 X
     Occ.   16 beta  a   ---  Virt.   21 beta  a    0.18736 X
     Occ.   19 beta  a   ---  Virt.   22 beta  a    0.10928 X
     Occ.   20 beta  a   ---  Virt.   24 beta  a    0.09595 X
  ----------------------------------------------------------------------------
  Root  32         a              0.260675220 a.u.                7.0933 eV 
  <S2> =   0.7993
  ----------------------------------------------------------------------------
     Transition Moments    X  0.00001   Y -0.00001   Z  0.09572
     Transition Moments   XX -0.00001  XY -0.00001  XZ -0.04431
     Transition Moments   YY -0.00004  YZ  0.70602  ZZ  0.00000
     Dipole Oscillator Strength                    0.0015922168
     Electric Quadrupole                           0.0000000472
     Magnetic Dipole                               0.0000000334
     Total Oscillator Strength                     0.0015922974
 
     Occ.   21 alpha a   ---  Virt.   29 alpha a   -0.97946 X
     Occ.   21 alpha a   ---  Virt.   33 alpha a   -0.18003 X
  ----------------------------------------------------------------------------
  Root  33         a              0.265422570 a.u.                7.2225 eV 
  <S2> =   1.7806
  ----------------------------------------------------------------------------
     Transition Moments    X  0.00001   Y  0.00001   Z -0.00056
     Transition Moments   XX -0.00006  XY  0.00002  XZ  0.54579
     Transition Moments   YY -0.00003  YZ  0.03828  ZZ -0.00004
     Dipole Oscillator Strength                    0.0000000551
     Electric Quadrupole                           0.0000000298
     Magnetic Dipole                               0.0000000005
     Total Oscillator Strength                     0.0000000854
 
     Occ.   20 beta  a   ---  Virt.   27 beta  a    0.99107 X
     Occ.   20 beta  a   ---  Virt.   38 beta  a   -0.09650 X
  ----------------------------------------------------------------------------
  Root  34         a              0.267148120 a.u.                7.2695 eV 
  <S2> =   0.8198
  ----------------------------------------------------------------------------
     Transition Moments    X -0.09002   Y  1.19822   Z -0.00000
     Transition Moments   XX -0.01312  XY  0.05127  XZ -0.00001
     Transition Moments   YY -0.69704  YZ -0.00005  ZZ -0.04428
     Dipole Oscillator Strength                    0.2571443068
     Electric Quadrupole                           0.0000000154
     Magnetic Dipole                               0.0000000000
     Total Oscillator Strength                     0.2571443222
 
     Occ.   17 alpha a   ---  Virt.   23 alpha a    0.08501 X
     Occ.   19 alpha a   ---  Virt.   23 alpha a   -0.30461 X
     Occ.   19 alpha a   ---  Virt.   29 alpha a   -0.16108 X
     Occ.   20 alpha a   ---  Virt.   22 alpha a   -0.22270 X
     Occ.   21 alpha a   ---  Virt.   28 alpha a   -0.30039 X
     Occ.   21 alpha a   ---  Virt.   30 alpha a    0.43257 X
     Occ.   21 alpha a   ---  Virt.   31 alpha a   -0.08093 X
     Occ.   14 beta  a   ---  Virt.   21 beta  a    0.08712 X
     Occ.   16 beta  a   ---  Virt.   21 beta  a   -0.50004 X
     Occ.   19 beta  a   ---  Virt.   22 beta  a   -0.22371 X
     Occ.   20 beta  a   ---  Virt.   24 beta  a   -0.30730 X
     Occ.   20 beta  a   ---  Virt.   29 beta  a   -0.34107 X
  ----------------------------------------------------------------------------
  Root  35         a              0.270837872 a.u.                7.3699 eV 
  <S2> =   2.7178
  ----------------------------------------------------------------------------
     Transition Moments    X -0.00001   Y -0.00001   Z -0.00923
     Transition Moments   XX  0.00001  XY -0.00001  XZ -0.00327
     Transition Moments   YY  0.00002  YZ -0.13299  ZZ -0.00000
     Dipole Oscillator Strength                    0.0000153678
     Electric Quadrupole                           0.0000000019
     Magnetic Dipole                               0.0000000000
     Total Oscillator Strength                     0.0000153697
 
     Occ.   20 alpha a   ---  Virt.   27 alpha a    0.78209 X
     Occ.   20 alpha a   ---  Virt.   38 alpha a   -0.08669 X
     Occ.   19 beta  a   ---  Virt.   27 beta  a   -0.59633 X
     Occ.   19 beta  a   ---  Virt.   38 beta  a    0.07001 X
     Occ.   20 beta  a   ---  Virt.   28 beta  a   -0.05464 X
     Occ.   20 beta  a   ---  Virt.   30 beta  a   -0.06190 X
  ----------------------------------------------------------------------------
  Root  36         a              0.271246292 a.u.                7.3810 eV 
  <S2> =   2.7411
  ----------------------------------------------------------------------------
     Transition Moments    X -0.04840   Y  0.00043   Z  0.00000
     Transition Moments   XX -0.01209  XY  0.02700  XZ -0.00001
     Transition Moments   YY  0.01053  YZ  0.00003  ZZ -0.00252
     Dipole Oscillator Strength                    0.0004235551
     Electric Quadrupole                           0.0000000001
     Magnetic Dipole                               0.0000000018
     Total Oscillator Strength                     0.0004235570
 
     Occ.   17 alpha a   ---  Virt.   22 alpha a   -0.59832 X
     Occ.   17 alpha a   ---  Virt.   41 alpha a    0.05240 X
     Occ.   19 alpha a   ---  Virt.   32 alpha a    0.08367 X
     Occ.   20 alpha a   ---  Virt.   29 alpha a   -0.16072 X
     Occ.   20 alpha a   ---  Virt.   44 alpha a    0.22717 X
     Occ.   20 alpha a   ---  Virt.   47 alpha a   -0.17380 X
     Occ.   17 beta  a   ---  Virt.   22 beta  a    0.64451 X
     Occ.   17 beta  a   ---  Virt.   41 beta  a   -0.05433 X
     Occ.   19 beta  a   ---  Virt.   29 beta  a    0.10422 X
     Occ.   19 beta  a   ---  Virt.   44 beta  a   -0.20074 X
     Occ.   19 beta  a   ---  Virt.   47 beta  a    0.16675 X
     Occ.   20 beta  a   ---  Virt.   31 beta  a   -0.10178 X
  ----------------------------------------------------------------------------
  Root  37         a              0.271696961 a.u.                7.3933 eV 
  <S2> =   1.0351
  ----------------------------------------------------------------------------
     Transition Moments    X -0.03628   Y  0.52845   Z -0.00000
     Transition Moments   XX -1.06448  XY -0.11373  XZ  0.00001
     Transition Moments   YY  0.75977  YZ -0.00001  ZZ -0.24138
     Dipole Oscillator Strength                    0.0508205349
     Electric Quadrupole                           0.0000000905
     Magnetic Dipole                               0.0000000000
     Total Oscillator Strength                     0.0508206254
 
     Occ.   17 alpha a   ---  Virt.   23 alpha a    0.06363 X
     Occ.   19 alpha a   ---  Virt.   23 alpha a   -0.09616 X
     Occ.   21 alpha a   ---  Virt.   30 alpha a   -0.79961 X
     Occ.   21 alpha a   ---  Virt.   31 alpha a    0.20707 X
     Occ.   21 alpha a   ---  Virt.   35 alpha a   -0.07542 X
     Occ.   21 alpha a   ---  Virt.   40 alpha a    0.05692 X
     Occ.   14 beta  a   ---  Virt.   21 beta  a    0.06451 X
     Occ.   16 beta  a   ---  Virt.   21 beta  a   -0.19570 X
     Occ.   19 beta  a   ---  Virt.   22 beta  a   -0.06201 X
     Occ.   20 beta  a   ---  Virt.   24 beta  a   -0.10096 X
     Occ.   20 beta  a   ---  Virt.   29 beta  a   -0.47374 X
  ----------------------------------------------------------------------------
  Root  38         a              0.271822857 a.u.                7.3967 eV 
  <S2> =   0.8165
  ----------------------------------------------------------------------------
     Transition Moments    X  0.00001   Y -0.00004   Z  0.02497
     Transition Moments   XX  0.00008  XY  0.00007  XZ -0.03436
     Transition Moments   YY -0.00012  YZ  0.87544  ZZ  0.00003
     Dipole Oscillator Strength                    0.0001130023
     Electric Quadrupole                           0.0000000821
     Magnetic Dipole                               0.0000000038
     Total Oscillator Strength                     0.0001130882
 
     Occ.   20 alpha a   ---  Virt.   27 alpha a   -0.59340 X
     Occ.   20 alpha a   ---  Virt.   38 alpha a    0.05095 X
     Occ.   19 beta  a   ---  Virt.   27 beta  a   -0.78629 X
     Occ.   19 beta  a   ---  Virt.   38 beta  a    0.07338 X
     Occ.   20 beta  a   ---  Virt.   28 beta  a    0.12687 X
  ----------------------------------------------------------------------------
  Root  39         a              0.272281251 a.u.                7.4092 eV 
  <S2> =   1.7239
  ----------------------------------------------------------------------------
     Transition Moments    X  0.00001   Y -0.00000   Z -0.00190
     Transition Moments   XX -0.00006  XY  0.00002  XZ  0.55070
     Transition Moments   YY -0.00001  YZ -0.00336  ZZ -0.00003
     Dipole Oscillator Strength                    0.0000006529
     Electric Quadrupole                           0.0000000326
     Magnetic Dipole                               0.0000000013
     Total Oscillator Strength                     0.0000006868
 
     Occ.   19 alpha a   ---  Virt.   27 alpha a    0.99003 X
     Occ.   19 alpha a   ---  Virt.   38 alpha a   -0.09586 X
  ----------------------------------------------------------------------------
  Root  40         a              0.272523683 a.u.                7.4157 eV 
  <S2> =   1.9637
  ----------------------------------------------------------------------------
     Transition Moments    X  0.00001   Y -0.00004   Z -0.04154
     Transition Moments   XX -0.00002  XY -0.00002  XZ  0.02977
     Transition Moments   YY -0.00005  YZ -0.44161  ZZ -0.00001
     Dipole Oscillator Strength                    0.0003135815
     Electric Quadrupole                           0.0000000211
     Magnetic Dipole                               0.0000000053
     Total Oscillator Strength                     0.0003136079
 
     Occ.   19 alpha a   ---  Virt.   28 alpha a    0.11741 X
     Occ.   20 alpha a   ---  Virt.   27 alpha a   -0.12811 X
     Occ.   17 beta  a   ---  Virt.   21 beta  a    0.05490 X
     Occ.   19 beta  a   ---  Virt.   27 beta  a   -0.06316 X
     Occ.   20 beta  a   ---  Virt.   28 beta  a   -0.96954 X
     Occ.   20 beta  a   ---  Virt.   30 beta  a   -0.05588 X
     Occ.   20 beta  a   ---  Virt.   32 beta  a   -0.07480 X
     Occ.   20 beta  a   ---  Virt.   43 beta  a   -0.08096 X
 
              Target root =      1
          Target symmetry = none
      Ground state energy =   -231.646313269920
        Excitation energy =      0.106123730739
     Excited state energy =   -231.540189539181
 
  stored tddft:energy   -231.540189539181     

 Task  times  cpu:     2901.9s     wall:     2996.3s
 
 
                                NWChem Input Module
                                -------------------
 
 
 Summary of allocated global arrays
-----------------------------------
  No active global arrays



                         GA Statistics for process    0
                         ------------------------------

       create   destroy   get      put      acc     scatter   gather  read&inc
calls: 9466     9466     9.66e+06 4.03e+06 2.10e+06 5640        0      279     
number of processes/call 1.33e+00 1.75e+00 1.91e+00 0.00e+00 0.00e+00
bytes total:             8.74e+10 1.09e+10 9.35e+10 6.26e+04 0.00e+00 2.23e+03
bytes remote:            6.47e+10 1.08e+09 8.92e+10 0.00e+00 0.00e+00 0.00e+00
Max memory consumed for GA by this process: 205086464 bytes
 
MA_summarize_allocated_blocks: starting scan ...
MA_summarize_allocated_blocks: scan completed: 0 heap blocks, 0 stack blocks
MA usage statistics:

	allocation statistics:
					      heap	     stack
					      ----	     -----
	current number of blocks	         0	         0
	maximum number of blocks	        20	        52
	current total bytes		         0	         0
	maximum total bytes		   1165984	  68276424
	maximum total K-bytes		      1166	     68277
	maximum total M-bytes		         2	        69
 
 
                                     CITATION
                                     --------
                Please cite the following reference when publishing
                           results obtained with NWChem:
 
                 M. Valiev, E.J. Bylaska, N. Govind, K. Kowalski,
              T.P. Straatsma, H.J.J. van Dam, D. Wang, J. Nieplocha,
                        E. Apra, T.L. Windus, W.A. de Jong
                 "NWChem: a comprehensive and scalable open-source
                  solution for large scale molecular simulations"
                      Comput. Phys. Commun. 181, 1477 (2010)
                           doi:10.1016/j.cpc.2010.04.018
 
                                      AUTHORS
                                      -------
          E. Apra, E. J. Bylaska, W. A. de Jong, N. Govind, K. Kowalski,
       T. P. Straatsma, M. Valiev, H. J. J. van Dam, D. Wang, T. L. Windus,
        J. Hammond, J. Autschbach, K. Bhaskaran-Nair, J. Brabec, K. Lopata,
    S. A. Fischer, S. Krishnamoorthy, M. Jacquelin, W. Ma, M. Klemm, O. Villa,
      Y. Chen, V. Anisimov, F. Aquino, S. Hirata, M. T. Hackler, V. Konjkov,
            D. Mejia-Rodriguez, T. Risthaus, M. Malagoli, A. Marenich,
   A. Otero-de-la-Roza, J. Mullin, P. Nichols, R. Peverati, J. Pittner, Y. Zhao,
        P.-D. Fan, A. Fonari, M. J. Williamson, R. J. Harrison, J. R. Rehr,
      M. Dupuis, D. Silverstein, D. M. A. Smith, J. Nieplocha, V. Tipparaju,
    M. Krishnan, B. E. Van Kuiken, A. Vazquez-Mayagoitia, L. Jensen, M. Swart,
      Q. Wu, T. Van Voorhis, A. A. Auer, M. Nooijen, L. D. Crosby, E. Brown,
      G. Cisneros, G. I. Fann, H. Fruchtl, J. Garza, K. Hirao, R. A. Kendall,
      J. A. Nichols, K. Tsemekhman, K. Wolinski, J. Anchell, D. E. Bernholdt,
      P. Borowski, T. Clark, D. Clerc, H. Dachsel, M. J. O. Deegan, K. Dyall,
    D. Elwood, E. Glendening, M. Gutowski, A. C. Hess, J. Jaffe, B. G. Johnson,
     J. Ju, R. Kobayashi, R. Kutteh, Z. Lin, R. Littlefield, X. Long, B. Meng,
      T. Nakajima, S. Niu, L. Pollack, M. Rosing, K. Glaesemann, G. Sandrone,
      M. Stave, H. Taylor, G. Thomas, J. H. van Lenthe, A. T. Wong, Z. Zhang.

 Total times  cpu:     2901.9s     wall:     2996.5s
