 argument  1 = /storage/home/j/jbb5516/normalModes/mode1301.19-m.nw
 


============================== echo of input deck ==============================
echo
start

title "None"

geometry
C    -0.08758029    1.38829727    0.00000005
C    -1.26756832    0.69031333   -0.00000002
C    -1.16748669   -0.70418800   -0.00000002
C     0.08357889   -1.31594733    0.00000004
C     1.24647230   -0.55315297   -0.00000001
C     1.17027303    0.84550164    0.00000005
H    -2.23017570    1.18387633   -0.00000010
H    -2.06772781   -1.30533845   -0.00000009
H     0.14998467   -2.39543350    0.00000000
H     2.21490757   -1.03693166   -0.00000013
H     2.06809443    1.44896065   -0.00000010
symmetry c1
end

basis spherical
 * library "aug-cc-pvtz"
end

dft
 direct
 mult 2
 iterations 500
 xc b3lyp
end

tddft
 nroots 40
 notriplet
 algorithm 1
end
task tddft energy
================================================================================


                                         
                                         
 
 
              Northwest Computational Chemistry Package (NWChem) 6.8
              ------------------------------------------------------
 
 
                    Environmental Molecular Sciences Laboratory
                       Pacific Northwest National Laboratory
                                Richland, WA 99352
 
                              Copyright (c) 1994-2017
                       Pacific Northwest National Laboratory
                            Battelle Memorial Institute
 
             NWChem is an open-source computational chemistry package
                        distributed under the terms of the
                      Educational Community License (ECL) 2.0
             A copy of the license is included with this distribution
                              in the LICENSE.TXT file
 
                                  ACKNOWLEDGMENT
                                  --------------

            This software and its documentation were developed at the
            EMSL at Pacific Northwest National Laboratory, a multiprogram
            national laboratory, operated for the U.S. Department of Energy
            by Battelle under Contract Number DE-AC05-76RL01830. Support
            for this work was provided by the Department of Energy Office
            of Biological and Environmental Research, Office of Basic
            Energy Sciences, and the Office of Advanced Scientific Computing.


           Job information
           ---------------

    hostname        = comp-sc-0084.acib.production.int.aci.ics.psu.edu
    program         = /gpfs/group/lxj18/default/jeffprograms/nwchem-6.8.1/bin/LINUX64/nwchem
    date            = Sun Sep 20 15:38:36 2020

    compiled        = Wed_Oct_03_14:08:39_2018
    source          = /gpfs/group/lxj18/default/jeffprograms/nwchem-6.8.1
    nwchem branch   = 6.8.1
    nwchem revision = v6.8-143-gdb0d964
    ga revision     = 5.6.5
    use scalapack   = F
    input           = /storage/home/j/jbb5516/normalModes/mode1301.19-m.nw
    prefix          = mode1301.19-m.
    data base       = ./mode1301.19-m.db
    status          = startup
    nproc           =       20
    time left       =     -1s



           Memory information
           ------------------

    heap     =   13107200 doubles =    100.0 Mbytes
    stack    =   13107197 doubles =    100.0 Mbytes
    global   =   26214400 doubles =    200.0 Mbytes (distinct from heap & stack)
    total    =   52428797 doubles =    400.0 Mbytes
    verify   = yes
    hardfail = no 


           Directory information
           ---------------------
 
  0 permanent = .
  0 scratch   = .
 
 
 
 
                                NWChem Input Module
                                -------------------
 
 
                                       None
                                       ----

 Scaling coordinates for geometry "geometry" by  1.889725989
 (inverse scale =  0.529177249)

 Turning off AUTOSYM since
 SYMMETRY directive was detected!
 

          ------
          auto-z
          ------
 
 
                             Geometry "geometry" -> ""
                             -------------------------
 
 Output coordinates in angstroms (scale by  1.889725989 to convert to a.u.)
 
  No.       Tag          Charge          X              Y              Z
 ---- ---------------- ---------- -------------- -------------- --------------
    1 C                    6.0000    -0.08760997     1.38829539     0.00000005
    2 C                    6.0000    -1.26759800     0.69031145    -0.00000002
    3 C                    6.0000    -1.16751637    -0.70418988    -0.00000002
    4 C                    6.0000     0.08354921    -1.31594921     0.00000004
    5 C                    6.0000     1.24644262    -0.55315485    -0.00000001
    6 C                    6.0000     1.17024335     0.84549976     0.00000005
    7 H                    1.0000    -2.23020538     1.18387445    -0.00000010
    8 H                    1.0000    -2.06775749    -1.30534033    -0.00000009
    9 H                    1.0000     0.14995499    -2.39543538    -0.00000000
   10 H                    1.0000     2.21487789    -1.03693354    -0.00000013
   11 H                    1.0000     2.06806475     1.44895877    -0.00000010
 
      Atomic Mass 
      ----------- 
 
      C                 12.000000
      H                  1.007825
 

 Effective nuclear repulsion energy (a.u.)     195.0639963034

            Nuclear Dipole moment (a.u.) 
            ----------------------------
        X                 Y               Z
 ---------------- ---------------- ----------------
     0.0000000000    -0.0000000000     0.0000000000
 


                                Z-matrix (autoz)
                                -------- 

 Units are Angstrom for bonds and degrees for angles
 
      Type          Name      I     J     K     L     M      Value
      ----------- --------  ----- ----- ----- ----- ----- ----------
    1 Stretch                  1     2                       1.37097
    2 Stretch                  1     6                       1.36997
    3 Stretch                  2     3                       1.39809
    4 Stretch                  2     7                       1.08177
    5 Stretch                  3     4                       1.39263
    6 Stretch                  3     8                       1.08250
    7 Stretch                  4     5                       1.39075
    8 Stretch                  4     9                       1.08153
    9 Stretch                  5     6                       1.40073
   10 Stretch                  5    10                       1.08255
   11 Stretch                  6    11                       1.08178
   12 Bend                     1     2     3               116.50006
   13 Bend                     1     2     7               122.24910
   14 Bend                     1     6     5               116.45984
   15 Bend                     1     6    11               122.75207
   16 Bend                     2     1     6               126.05351
   17 Bend                     2     3     4               120.16321
   18 Bend                     2     3     8               119.62864
   19 Bend                     3     2     7               121.25083
   20 Bend                     3     4     5               120.67912
   21 Bend                     3     4     9               119.57838
   22 Bend                     4     3     8               120.20815
   23 Bend                     4     5     6               120.14427
   24 Bend                     4     5    10               120.19305
   25 Bend                     5     4     9               119.74250
   26 Bend                     5     6    11               120.78809
   27 Bend                     6     5    10               119.66269
   28 Torsion                  1     2     3     4           0.00000
   29 Torsion                  1     2     3     8        -180.00000
   30 Torsion                  1     6     5     4           0.00000
   31 Torsion                  1     6     5    10         180.00000
   32 Torsion                  2     1     6     5           0.00000
   33 Torsion                  2     1     6    11         180.00000
   34 Torsion                  2     3     4     5           0.00000
   35 Torsion                  2     3     4     9        -180.00000
   36 Torsion                  3     2     1     6           0.00000
   37 Torsion                  3     4     5     6           0.00000
   38 Torsion                  3     4     5    10        -180.00000
   39 Torsion                  4     3     2     7         180.00000
   40 Torsion                  4     5     6    11        -180.00000
   41 Torsion                  5     4     3     8         180.00000
   42 Torsion                  6     1     2     7        -180.00000
   43 Torsion                  6     5     4     9        -180.00000
   44 Torsion                  7     2     3     8           0.00000
   45 Torsion                  8     3     4     9           0.00000
   46 Torsion                  9     4     5    10           0.00000
   47 Torsion                 10     5     6    11           0.00000
 
 
            XYZ format geometry
            -------------------
    11
 geometry
 C                    -0.08760997     1.38829539     0.00000005
 C                    -1.26759800     0.69031145    -0.00000002
 C                    -1.16751637    -0.70418988    -0.00000002
 C                     0.08354921    -1.31594921     0.00000004
 C                     1.24644262    -0.55315485    -0.00000001
 C                     1.17024335     0.84549976     0.00000005
 H                    -2.23020538     1.18387445    -0.00000010
 H                    -2.06775749    -1.30534033    -0.00000009
 H                     0.14995499    -2.39543538    -0.00000000
 H                     2.21487789    -1.03693354    -0.00000013
 H                     2.06806475     1.44895877    -0.00000010
 
 ==============================================================================
                                internuclear distances
 ------------------------------------------------------------------------------
       center one      |      center two      | atomic units |  angstroms
 ------------------------------------------------------------------------------
    2 C                |   1 C                |     2.59075  |     1.37097
    3 C                |   2 C                |     2.64200  |     1.39809
    4 C                |   3 C                |     2.63169  |     1.39263
    5 C                |   4 C                |     2.62813  |     1.39075
    6 C                |   1 C                |     2.58887  |     1.36997
    6 C                |   5 C                |     2.64699  |     1.40073
    7 H                |   2 C                |     2.04424  |     1.08177
    8 H                |   3 C                |     2.04564  |     1.08250
    9 H                |   4 C                |     2.04379  |     1.08153
   10 H                |   5 C                |     2.04572  |     1.08255
   11 H                |   6 C                |     2.04427  |     1.08178
 ------------------------------------------------------------------------------
                         number of included internuclear distances:         11
 ==============================================================================



 ==============================================================================
                                 internuclear angles
 ------------------------------------------------------------------------------
        center 1       |       center 2       |       center 3       |  degrees
 ------------------------------------------------------------------------------
    2 C                |   1 C                |   6 C                |   126.05
    1 C                |   2 C                |   3 C                |   116.50
    1 C                |   2 C                |   7 H                |   122.25
    3 C                |   2 C                |   7 H                |   121.25
    2 C                |   3 C                |   4 C                |   120.16
    2 C                |   3 C                |   8 H                |   119.63
    4 C                |   3 C                |   8 H                |   120.21
    3 C                |   4 C                |   5 C                |   120.68
    3 C                |   4 C                |   9 H                |   119.58
    5 C                |   4 C                |   9 H                |   119.74
    4 C                |   5 C                |   6 C                |   120.14
    4 C                |   5 C                |  10 H                |   120.19
    6 C                |   5 C                |  10 H                |   119.66
    1 C                |   6 C                |   5 C                |   116.46
    1 C                |   6 C                |  11 H                |   122.75
    5 C                |   6 C                |  11 H                |   120.79
 ------------------------------------------------------------------------------
                            number of included internuclear angles:         16
 ==============================================================================





 Summary of "ao basis" -> "" (spherical)
 ------------------------------------------------------------------------------
       Tag                 Description            Shells   Functions and Types
 ---------------- ------------------------------  ------  ---------------------
 *                        aug-cc-pvtz                 on all atoms 


 
                                 NWChem DFT Module
                                 -----------------
 
 
                                       None
 
 
                      Basis "ao basis" -> "ao basis" (spherical)
                      -----
  C (Carbon)
  ----------
            Exponent  Coefficients 
       -------------- ---------------------------------------------------------
  1 S  8.23600000E+03  0.000531
  1 S  1.23500000E+03  0.004108
  1 S  2.80800000E+02  0.021087
  1 S  7.92700000E+01  0.081853
  1 S  2.55900000E+01  0.234817
  1 S  8.99700000E+00  0.434401
  1 S  3.31900000E+00  0.346129
  1 S  3.64300000E-01 -0.008983
 
  2 S  8.23600000E+03 -0.000113
  2 S  1.23500000E+03 -0.000878
  2 S  2.80800000E+02 -0.004540
  2 S  7.92700000E+01 -0.018133
  2 S  2.55900000E+01 -0.055760
  2 S  8.99700000E+00 -0.126895
  2 S  3.31900000E+00 -0.170352
  2 S  3.64300000E-01  0.598684
 
  3 S  9.05900000E-01  1.000000
 
  4 S  1.28500000E-01  1.000000
 
  5 S  4.40200000E-02  1.000000
 
  6 P  1.87100000E+01  0.014031
  6 P  4.13300000E+00  0.086866
  6 P  1.20000000E+00  0.290216
 
  7 P  3.82700000E-01  1.000000
 
  8 P  1.20900000E-01  1.000000
 
  9 P  3.56900000E-02  1.000000
 
 10 D  1.09700000E+00  1.000000
 
 11 D  3.18000000E-01  1.000000
 
 12 D  1.00000000E-01  1.000000
 
 13 F  7.61000000E-01  1.000000
 
 14 F  2.68000000E-01  1.000000
 
  H (Hydrogen)
  ------------
            Exponent  Coefficients 
       -------------- ---------------------------------------------------------
  1 S  3.38700000E+01  0.006068
  1 S  5.09500000E+00  0.045308
  1 S  1.15900000E+00  0.202822
 
  2 S  3.25800000E-01  1.000000
 
  3 S  1.02700000E-01  1.000000
 
  4 S  2.52600000E-02  1.000000
 
  5 P  1.40700000E+00  1.000000
 
  6 P  3.88000000E-01  1.000000
 
  7 P  1.02000000E-01  1.000000
 
  8 D  1.05700000E+00  1.000000
 
  9 D  2.47000000E-01  1.000000
 


 Summary of "ao basis" -> "ao basis" (spherical)
 ------------------------------------------------------------------------------
       Tag                 Description            Shells   Functions and Types
 ---------------- ------------------------------  ------  ---------------------
 C                        aug-cc-pvtz               14       46   5s4p3d2f
 H                        aug-cc-pvtz                9       23   4s3p2d




 Summary of "ao basis" -> "ao basis" (spherical)
 ------------------------------------------------------------------------------
       Tag                 Description            Shells   Functions and Types
 ---------------- ------------------------------  ------  ---------------------
 C                        aug-cc-pvtz               14       46   5s4p3d2f
 H                        aug-cc-pvtz                9       23   4s3p2d


  Caching 1-el integrals 
 
            General Information
            -------------------
          SCF calculation type: DFT
          Wavefunction type:  spin polarized.
          No. of atoms     :    11
          No. of electrons :    41
           Alpha electrons :    21
            Beta electrons :    20
          Charge           :     0
          Spin multiplicity:     2
          Use of symmetry is: off; symmetry adaption is: off
          Maximum number of iterations: 500
          This is a Direct SCF calculation.
          AO basis - number of functions:   391
                     number of shells:   129
          Convergence on energy requested:  1.00D-06
          Convergence on density requested:  1.00D-05
          Convergence on gradient requested:  5.00D-04
 
              XC Information
              --------------
                         B3LYP Method XC Potential
                     Hartree-Fock (Exact) Exchange  0.200          
                        Slater Exchange Functional  0.800 local    
                    Becke 1988 Exchange Functional  0.720 non-local
              Lee-Yang-Parr Correlation Functional  0.810          
                  VWN I RPA Correlation Functional  0.190 local    
 
             Grid Information
             ----------------
          Grid used for XC integration:  medium    
          Radial quadrature: Mura-Knowles        
          Angular quadrature: Lebedev. 
          Tag              B.-S. Rad. Rad. Pts. Rad. Cut. Ang. Pts.
          ---              ---------- --------- --------- ---------
          C                   0.70       49          15.0       434
          H                   0.35       45          17.0       434
          Grid pruning is: on 
          Number of quadrature shells:   519
          Spatial weights used:  Erf1
 
          Convergence Information
          -----------------------
          Convergence aids based upon iterative change in 
          total energy or number of iterations. 
          Levelshifting, if invoked, occurs when the 
          HOMO/LUMO gap drops below (HL_TOL):  1.00D-02
          DIIS, if invoked, will attempt to extrapolate 
          using up to (NFOCK): 10 stored Fock matrices.

                    Damping( 0%)  Levelshifting(0.5)       DIIS
                  --------------- ------------------- ---------------
          dE  on:    start            ASAP                start   
          dE off:    2 iters        500 iters           500 iters 

 
      Screening Tolerance Information
      -------------------------------
          Density screening/tol_rho:  1.00D-10
          AO Gaussian exp screening on grid/accAOfunc:  14
          CD Gaussian exp screening on grid/accCDfunc:  20
          XC Gaussian exp screening on grid/accXCfunc:  20
          Schwarz screening/accCoul:  1.00D-08

 
 WARNING : Found     7 linear dependencies 
 S eigenvalue threshold:     1.00000E-05
 Smallest S eigenvalue :     1.46395E-06
 Largest  S eigenvalue :     7.76596E-06
 

 !! The overlap matrix has   7 vectors deemed linearly dependent with
    eigenvalues:
 1.46D-06 2.24D-06 2.83D-06 3.54D-06 5.28D-06 5.95D-06 7.77D-06
 
 
      Superposition of Atomic Density Guess
      -------------------------------------
 
 Sum of atomic energies:        -228.52307259
 
      Non-variational initial energy
      ------------------------------

 Total energy =    -232.667208
 1-e energy   =    -691.328503
 2-e energy   =     263.597298
 HOMO         =      -0.183326
 LUMO         =      -0.022267
 
   Time after variat. SCF:      9.9
   Time prior to 1st pass:      9.9

 Grid_pts file          = ./mode1301.19-m.gridpts.00
 Record size in doubles =  12289        No. of grid_pts per rec  =   3070
 Max. records in memory =      6        Max. recs in file   = 220415044

 Grid integrated density:      40.999765479374
 Requested integration accuracy:   0.10E-05

           Memory utilization after 1st SCF pass: 
           Heap Space remaining (MW):       12.96            12961280
          Stack Space remaining (MW):       13.10            13103676

   convergence    iter        energy       DeltaE   RMS-Dens  Diis-err    time
 ---------------- ----- ----------------- --------- --------- ---------  ------
 d= 0,ls=0.0,diis     1   -231.5815703901 -4.27D+02  6.10D-02  2.09D-01    20.7
                                                     6.89D-02  1.96D-01
 d= 0,ls=0.0,diis     2   -231.6398543887 -5.83D-02  6.01D-02  1.21D-02    31.4
                                                     6.78D-02  1.24D-02
 d= 0,ls=0.0,diis     3   -231.6446038321 -4.75D-03  1.27D-03  3.44D-03    42.1
                                                     1.38D-03  3.50D-03
 d= 0,ls=0.0,diis     4   -231.6457657203 -1.16D-03  2.03D-04  1.12D-03    52.9
                                                     2.07D-04  1.06D-03
 d= 0,ls=0.0,diis     5   -231.6462809328 -5.15D-04  3.38D-05  4.23D-05    63.7
                                                     3.10D-05  4.83D-05
  Resetting Diis
 d= 0,ls=0.0,diis     6   -231.6463087390 -2.78D-05  1.10D-05  7.93D-06    74.5
                                                     1.06D-05  6.41D-06
 d= 0,ls=0.0,diis     7   -231.6463149667 -6.23D-06  7.34D-06  2.16D-06    85.3
                                                     6.56D-06  2.42D-06
 d= 0,ls=0.0,diis     8   -231.6463159800 -1.01D-06  3.07D-06  5.63D-06    96.1
                                                     2.73D-06  4.98D-06
 d= 0,ls=0.0,diis     9   -231.6463193565 -3.38D-06  3.79D-06  3.84D-07   106.9
                                                     3.36D-06  3.26D-07
 d= 0,ls=0.0,diis    10   -231.6463206762 -1.32D-06  2.10D-06  1.86D-07   117.7
                                                     2.41D-06  2.87D-07
 d= 0,ls=0.0,diis    11   -231.6463211007 -4.25D-07  5.91D-07  1.35D-08   129.3
                                                     5.05D-07  9.52D-09


         Total DFT energy =     -231.646321100685
      One electron energy =     -696.560947355024
           Coulomb energy =      304.259818626358
    Exchange-Corr. energy =      -34.409188675423
 Nuclear repulsion energy =      195.063996303404

 Numeric. integr. density =       40.999984470372

     Total iterative time =    119.5s


 
                    DFT Final Alpha Molecular Orbital Analysis
                    ------------------------------------------
 
 Vector    1  Occ=1.000000D+00  E=-1.020525D+01
              MO Center= -8.8D-02,  1.4D+00,  4.8D-08, r^2= 3.0D-02
   Bfn.  Coefficient  Atom+Function         Bfn.  Coefficient  Atom+Function  
  ----- ------------  ---------------      ----- ------------  ---------------
     1      0.984163   1 C  s                 3      0.058855   1 C  s         
    50     -0.038569   2 C  s               234     -0.038250   6 C  s         
   279      0.038204   7 H  s               143      0.037876   4 C  s         
   371      0.037680  11 H  s               235     -0.031192   6 C  s         
    51     -0.030151   2 C  s               231      0.025491   6 C  s         
 
 Vector    2  Occ=1.000000D+00  E=-1.019185D+01
              MO Center=  1.2D+00, -5.0D-01, -1.3D-08, r^2= 2.2D-01
   Bfn.  Coefficient  Atom+Function         Bfn.  Coefficient  Atom+Function  
  ----- ------------  ---------------      ----- ------------  ---------------
   185      0.954545   5 C  s               231      0.202828   6 C  s         
    93      0.137028   3 C  s               142     -0.079762   4 C  s         
   348      0.057449  10 H  s               187      0.056997   5 C  s         
    50      0.049487   2 C  s               139      0.047439   4 C  s         
   325      0.040727   9 H  s               279     -0.040334   7 H  s         
 
 Vector    3  Occ=1.000000D+00  E=-1.019178D+01
              MO Center= -1.1D+00, -6.4D-01, -2.4D-08, r^2= 2.2D-01
   Bfn.  Coefficient  Atom+Function         Bfn.  Coefficient  Atom+Function  
  ----- ------------  ---------------      ----- ------------  ---------------
    93      0.955719   3 C  s                47      0.198371   2 C  s         
   185     -0.132124   5 C  s               302      0.060723   8 H  s         
   142     -0.058271   4 C  s               234      0.058450   6 C  s         
    95      0.056982   3 C  s               371     -0.047836  11 H  s         
   235      0.047285   6 C  s               231     -0.045808   6 C  s         
 
 Vector    4  Occ=1.000000D+00  E=-1.019041D+01
              MO Center=  1.2D+00,  7.8D-01,  4.5D-08, r^2= 1.2D-01
   Bfn.  Coefficient  Atom+Function         Bfn.  Coefficient  Atom+Function  
  ----- ------------  ---------------      ----- ------------  ---------------
   231      0.963277   6 C  s               185     -0.203998   5 C  s         
   371      0.058946  11 H  s               233      0.056077   6 C  s         
    97      0.038530   3 C  s                96      0.035453   3 C  s         
   143      0.032629   4 C  s                 4     -0.030550   1 C  s         
   235     -0.030636   6 C  s                12     -0.030453   1 C  px        
 
 Vector    5  Occ=1.000000D+00  E=-1.019026D+01
              MO Center= -1.3D+00,  6.3D-01, -2.4D-08, r^2= 1.1D-01
   Bfn.  Coefficient  Atom+Function         Bfn.  Coefficient  Atom+Function  
  ----- ------------  ---------------      ----- ------------  ---------------
    47      0.965063   2 C  s                93     -0.195561   3 C  s         
   279      0.058853   7 H  s                49      0.056176   2 C  s         
   189      0.041097   5 C  s               188      0.034889   5 C  s         
    97     -0.033066   3 C  s                12      0.031684   1 C  px        
    96     -0.031224   3 C  s               143      0.030465   4 C  s         
 
 Vector    6  Occ=1.000000D+00  E=-1.018433D+01
              MO Center=  8.3D-02, -1.3D+00,  3.9D-08, r^2= 3.5D-02
   Bfn.  Coefficient  Atom+Function         Bfn.  Coefficient  Atom+Function  
  ----- ------------  ---------------      ----- ------------  ---------------
   139      0.984284   4 C  s               141      0.057792   4 C  s         
    96     -0.046147   3 C  s               325      0.045999   9 H  s         
   188     -0.045663   5 C  s               143     -0.043492   4 C  s         
     4      0.040386   1 C  s                93     -0.039627   3 C  s         
   185     -0.039819   5 C  s               151      0.035996   4 C  py        
 
 Vector    7  Occ=1.000000D+00  E=-8.724609D-01
              MO Center= -7.9D-03,  9.9D-02,  5.1D-09, r^2= 2.0D+00
   Bfn.  Coefficient  Atom+Function         Bfn.  Coefficient  Atom+Function  
  ----- ------------  ---------------      ----- ------------  ---------------
     2      0.214056   1 C  s                48      0.202947   2 C  s         
   232      0.202373   6 C  s                94      0.195777   3 C  s         
   186      0.195404   5 C  s               140      0.188222   4 C  s         
    50      0.090119   2 C  s               234      0.090365   6 C  s         
    96      0.088112   3 C  s               188      0.088076   5 C  s         
 
 Vector    8  Occ=1.000000D+00  E=-7.627334D-01
              MO Center= -6.8D-03,  1.0D-01,  1.9D-09, r^2= 2.8D+00
   Bfn.  Coefficient  Atom+Function         Bfn.  Coefficient  Atom+Function  
  ----- ------------  ---------------      ----- ------------  ---------------
    48      0.252079   2 C  s               232     -0.249621   6 C  s         
   186     -0.244967   5 C  s                94      0.242671   3 C  s         
    50      0.147486   2 C  s               234     -0.144932   6 C  s         
   279     -0.130215   7 H  s               371      0.128517  11 H  s         
   150     -0.115538   4 C  px               97      0.111245   3 C  s         
 
 Vector    9  Occ=1.000000D+00  E=-7.537328D-01
              MO Center=  1.1D-02, -1.5D-01, -2.7D-08, r^2= 2.6D+00
   Bfn.  Coefficient  Atom+Function         Bfn.  Coefficient  Atom+Function  
  ----- ------------  ---------------      ----- ------------  ---------------
   140     -0.300903   4 C  s                 2      0.278549   1 C  s         
    94     -0.150561   3 C  s               232      0.150377   6 C  s         
   142     -0.147410   4 C  s               186     -0.147157   5 C  s         
    48      0.145665   2 C  s                96     -0.106377   3 C  s         
     4      0.103013   1 C  s               188     -0.103415   5 C  s         
 
 Vector   10  Occ=1.000000D+00  E=-6.187403D-01
              MO Center= -6.9D-03,  3.9D-02, -1.0D-08, r^2= 3.6D+00
   Bfn.  Coefficient  Atom+Function         Bfn.  Coefficient  Atom+Function  
  ----- ------------  ---------------      ----- ------------  ---------------
    94     -0.209371   3 C  s               186      0.207744   5 C  s         
    48      0.199055   2 C  s               232     -0.199867   6 C  s         
    50      0.183822   2 C  s               234     -0.182894   6 C  s         
    96     -0.148853   3 C  s               188      0.145147   5 C  s         
     6     -0.127294   1 C  px              144      0.116928   4 C  px        
 
 Vector   11  Occ=1.000000D+00  E=-6.035493D-01
              MO Center=  1.1D-02, -8.6D-02, -3.1D-08, r^2= 3.5D+00
   Bfn.  Coefficient  Atom+Function         Bfn.  Coefficient  Atom+Function  
  ----- ------------  ---------------      ----- ------------  ---------------
   142      0.258342   4 C  s                 2      0.238934   1 C  s         
   140      0.218764   4 C  s                 4      0.198686   1 C  s         
   186     -0.139535   5 C  s                94     -0.137162   3 C  s         
    50     -0.123700   2 C  s               234     -0.121705   6 C  s         
   188     -0.119992   5 C  s                96     -0.118550   3 C  s         
 
 Vector   12  Occ=1.000000D+00  E=-5.277277D-01
              MO Center=  6.0D-03, -1.5D-01, -1.1D-08, r^2= 4.1D+00
   Bfn.  Coefficient  Atom+Function         Bfn.  Coefficient  Atom+Function  
  ----- ------------  ---------------      ----- ------------  ---------------
   148      0.159306   4 C  py              145      0.138881   4 C  py        
   324     -0.126841   9 H  s                55      0.105174   2 C  px        
   240     -0.104370   6 C  py              323     -0.100378   9 H  s         
   237     -0.095648   6 C  py              193     -0.094581   5 C  px        
   278     -0.094642   7 H  s               370     -0.094325  11 H  s         
 
 Vector   13  Occ=1.000000D+00  E=-4.645744D-01
              MO Center=  4.6D-02,  1.0D-01,  4.1D-09, r^2= 2.8D+00
   Bfn.  Coefficient  Atom+Function         Bfn.  Coefficient  Atom+Function  
  ----- ------------  ---------------      ----- ------------  ---------------
     9      0.186182   1 C  px                6      0.172789   1 C  px        
   147      0.170175   4 C  px              144      0.156984   4 C  px        
   239     -0.151170   6 C  px              194     -0.144006   5 C  py        
   101     -0.139022   3 C  px              236     -0.135981   6 C  px        
    56     -0.130035   2 C  py              191     -0.128964   5 C  py        
 
 Vector   14  Occ=1.000000D+00  E=-4.631132D-01
              MO Center= -3.7D-02, -1.5D-01, -4.7D-08, r^2= 4.7D+00
   Bfn.  Coefficient  Atom+Function         Bfn.  Coefficient  Atom+Function  
  ----- ------------  ---------------      ----- ------------  ---------------
     2      0.173805   1 C  s               193      0.144335   5 C  px        
   347      0.138465  10 H  s               190      0.132844   5 C  px        
   301      0.130652   8 H  s               140     -0.127451   4 C  s         
   196      0.124784   5 C  px               96      0.120288   3 C  s         
    55      0.116901   2 C  px              278     -0.114556   7 H  s         
 
 Vector   15  Occ=1.000000D+00  E=-4.399780D-01
              MO Center= -1.9D-02,  2.1D-01, -2.5D-08, r^2= 4.0D+00
   Bfn.  Coefficient  Atom+Function         Bfn.  Coefficient  Atom+Function  
  ----- ------------  ---------------      ----- ------------  ---------------
   240      0.143485   6 C  py              102      0.139557   3 C  py        
   237      0.132414   6 C  py              278     -0.131822   7 H  s         
    99      0.130650   3 C  py              370      0.131082  11 H  s         
    55      0.129737   2 C  px               56     -0.129180   2 C  py        
   194     -0.126556   5 C  py               53     -0.120109   2 C  py        
 
 Vector   16  Occ=1.000000D+00  E=-3.990524D-01
              MO Center=  5.8D-02, -7.8D-01, -1.0D-08, r^2= 3.3D+00
   Bfn.  Coefficient  Atom+Function         Bfn.  Coefficient  Atom+Function  
  ----- ------------  ---------------      ----- ------------  ---------------
   148      0.233546   4 C  py              145      0.209227   4 C  py        
   324     -0.198580   9 H  s               151      0.172709   4 C  py        
   323     -0.154023   9 H  s                10      0.138614   1 C  py        
    13      0.120880   1 C  py              240      0.116356   6 C  py        
   194     -0.109025   5 C  py               56      0.108460   2 C  py        
 
 Vector   17  Occ=1.000000D+00  E=-3.837016D-01
              MO Center= -9.1D-03,  1.2D-01, -5.8D-08, r^2= 2.7D+00
   Bfn.  Coefficient  Atom+Function         Bfn.  Coefficient  Atom+Function  
  ----- ------------  ---------------      ----- ------------  ---------------
    11      0.173446   1 C  pz               57      0.156576   2 C  pz        
   241      0.156230   6 C  pz              103      0.152357   3 C  pz        
   195      0.152095   5 C  pz              149      0.145897   4 C  pz        
     8      0.136820   1 C  pz               54      0.125916   2 C  pz        
   238      0.125640   6 C  pz              100      0.121831   3 C  pz        
 
 Vector   18  Occ=1.000000D+00  E=-3.659877D-01
              MO Center=  2.3D-03, -1.4D-01, -2.8D-08, r^2= 4.1D+00
   Bfn.  Coefficient  Atom+Function         Bfn.  Coefficient  Atom+Function  
  ----- ------------  ---------------      ----- ------------  ---------------
   147     -0.169401   4 C  px              101      0.165606   3 C  px        
   193      0.164684   5 C  px              144     -0.159941   4 C  px        
     9      0.149379   1 C  px               98      0.149821   3 C  px        
   190      0.148800   5 C  px                6      0.141572   1 C  px        
   196      0.135303   5 C  px              104      0.133941   3 C  px        
 
 Vector   19  Occ=1.000000D+00  E=-2.685181D-01
              MO Center=  9.4D-03, -1.4D-02,  7.7D-08, r^2= 3.0D+00
   Bfn.  Coefficient  Atom+Function         Bfn.  Coefficient  Atom+Function  
  ----- ------------  ---------------      ----- ------------  ---------------
    11      0.244581   1 C  pz              149     -0.237932   4 C  pz        
     8      0.192343   1 C  pz              146     -0.190213   4 C  pz        
    14      0.175825   1 C  pz              152     -0.171172   4 C  pz        
   195     -0.141954   5 C  pz               57      0.129356   2 C  pz        
   192     -0.113421   5 C  pz              103     -0.110384   3 C  pz        
 
 Vector   20  Occ=1.000000D+00  E=-2.678679D-01
              MO Center= -1.1D-02,  6.1D-02,  2.8D-07, r^2= 3.1D+00
   Bfn.  Coefficient  Atom+Function         Bfn.  Coefficient  Atom+Function  
  ----- ------------  ---------------      ----- ------------  ---------------
   103      0.216414   3 C  pz              241     -0.211751   6 C  pz        
   195     -0.197344   5 C  pz               57      0.194799   2 C  pz        
   100      0.172448   3 C  pz              238     -0.169527   6 C  pz        
   192     -0.157201   5 C  pz               54      0.156040   2 C  pz        
   106      0.156293   3 C  pz              244     -0.155872   6 C  pz        
 
 Vector   21  Occ=1.000000D+00  E=-2.484158D-01
              MO Center= -8.0D-02,  1.3D+00,  8.4D-08, r^2= 2.3D+00
   Bfn.  Coefficient  Atom+Function         Bfn.  Coefficient  Atom+Function  
  ----- ------------  ---------------      ----- ------------  ---------------
    10      0.385971   1 C  py               13      0.337673   1 C  py        
     5      0.335240   1 C  s                 7      0.299324   1 C  py        
     4      0.279449   1 C  s                 2      0.138352   1 C  s         
   243     -0.136389   6 C  py               59     -0.134058   2 C  py        
   194      0.112805   5 C  py              102      0.111993   3 C  py        
 
 Vector   22  Occ=0.000000D+00  E=-2.600683D-02
              MO Center= -6.0D-03,  6.8D-02, -9.0D-07, r^2= 4.3D+00
   Bfn.  Coefficient  Atom+Function         Bfn.  Coefficient  Atom+Function  
  ----- ------------  ---------------      ----- ------------  ---------------
   109     -0.321480   3 C  pz              201      0.318678   5 C  pz        
   247     -0.315484   6 C  pz               63      0.313783   2 C  pz        
   244     -0.227654   6 C  pz               60      0.226273   2 C  pz        
   106     -0.224498   3 C  pz              198      0.222950   5 C  pz        
   241     -0.219455   6 C  pz               57      0.218066   2 C  pz        
 
 Vector   23  Occ=0.000000D+00  E=-1.861235D-02
              MO Center=  6.3D-03, -4.9D-02, -4.2D-06, r^2= 4.3D+00
   Bfn.  Coefficient  Atom+Function         Bfn.  Coefficient  Atom+Function  
  ----- ------------  ---------------      ----- ------------  ---------------
   155      0.439595   4 C  pz               17      0.373545   1 C  pz        
   152      0.273939   4 C  pz               11      0.258944   1 C  pz        
   149      0.250781   4 C  pz               14      0.240473   1 C  pz        
   201     -0.228794   5 C  pz              109     -0.223366   3 C  pz        
     8      0.200618   1 C  pz               63     -0.199733   2 C  pz        
 
 Vector   24  Occ=0.000000D+00  E=-1.011011D-02
              MO Center=  6.3D-02, -9.5D-01, -1.5D-06, r^2= 2.0D+01
   Bfn.  Coefficient  Atom+Function         Bfn.  Coefficient  Atom+Function  
  ----- ------------  ---------------      ----- ------------  ---------------
     5      1.446536   1 C  s               279     -0.977970   7 H  s         
   371     -0.974865  11 H  s               326     -0.741623   9 H  s         
   303     -0.729313   8 H  s               349     -0.731304  10 H  s         
   302     -0.651351   8 H  s               348     -0.649081  10 H  s         
   325     -0.588306   9 H  s                51      0.560626   2 C  s         
 
 Vector   25  Occ=0.000000D+00  E= 4.382044D-03
              MO Center=  1.7D-02, -2.6D-01, -6.8D-06, r^2= 2.7D+01
   Bfn.  Coefficient  Atom+Function         Bfn.  Coefficient  Atom+Function  
  ----- ------------  ---------------      ----- ------------  ---------------
    51      2.725899   2 C  s               235     -2.737101   6 C  s         
    97      2.670435   3 C  s               189     -2.675204   5 C  s         
   303      1.997941   8 H  s               349     -1.995793  10 H  s         
    15      1.866825   1 C  px              153      1.807372   4 C  px        
   280      1.538869   7 H  s               372     -1.540877  11 H  s         
 
 Vector   26  Occ=0.000000D+00  E= 8.729354D-03
              MO Center=  3.3D-03, -7.4D-02,  6.3D-05, r^2= 2.7D+01
   Bfn.  Coefficient  Atom+Function         Bfn.  Coefficient  Atom+Function  
  ----- ------------  ---------------      ----- ------------  ---------------
   143      6.244788   4 C  s                51     -4.012951   2 C  s         
   235     -4.006419   6 C  s               326      2.932256   9 H  s         
     5      2.589720   1 C  s               280     -2.387266   7 H  s         
   372     -2.389213  11 H  s               154      1.947294   4 C  py        
   246      1.938029   6 C  py               62      1.825874   2 C  py        
 
 Vector   27  Occ=0.000000D+00  E= 2.670568D-02
              MO Center= -1.7D-02,  2.4D-01, -9.7D-06, r^2= 3.1D+01
   Bfn.  Coefficient  Atom+Function         Bfn.  Coefficient  Atom+Function  
  ----- ------------  ---------------      ----- ------------  ---------------
   280      3.928720   7 H  s               372     -3.935684  11 H  s         
   235     -3.698050   6 C  s                51      3.620181   2 C  s         
   303     -3.607238   8 H  s               349      3.596292  10 H  s         
    61      2.221542   2 C  px               97     -2.187310   3 C  s         
   189      2.193092   5 C  s               245      2.043105   6 C  px        
 
 Vector   28  Occ=0.000000D+00  E= 3.221637D-02
              MO Center=  4.1D-02, -6.2D-01, -1.1D-04, r^2= 2.9D+01
   Bfn.  Coefficient  Atom+Function         Bfn.  Coefficient  Atom+Function  
  ----- ------------  ---------------      ----- ------------  ---------------
     5      6.396850   1 C  s               326     -4.998296   9 H  s         
   303      3.719414   8 H  s               349      3.731781  10 H  s         
   189     -2.192353   5 C  s                97     -2.166767   3 C  s         
   154     -2.176224   4 C  py              199     -1.646600   5 C  px        
   245      1.639311   6 C  px               61     -1.575388   2 C  px        
 
 Vector   29  Occ=0.000000D+00  E= 4.329430D-02
              MO Center=  1.3D-02, -2.2D-01,  7.2D-06, r^2= 1.3D+01
   Bfn.  Coefficient  Atom+Function         Bfn.  Coefficient  Atom+Function  
  ----- ------------  ---------------      ----- ------------  ---------------
   155      0.598809   4 C  pz               63      0.577061   2 C  pz        
   247      0.575740   6 C  pz               17     -0.260475   1 C  pz        
    60     -0.154964   2 C  pz              244     -0.154856   6 C  pz        
   289     -0.123543   7 H  pz              381     -0.123460  11 H  pz        
   259      0.118142   6 C  d -1             77      0.109041   2 C  d  1      
 
 Vector   30  Occ=0.000000D+00  E= 5.496267D-02
              MO Center=  1.2D-02, -1.5D-01, -4.0D-05, r^2= 1.5D+01
   Bfn.  Coefficient  Atom+Function         Bfn.  Coefficient  Atom+Function  
  ----- ------------  ---------------      ----- ------------  ---------------
     5     10.709357   1 C  s               143      5.282834   4 C  s         
    51     -4.492013   2 C  s               235     -4.485625   6 C  s         
   303     -2.796836   8 H  s               349     -2.805215  10 H  s         
   326      2.060542   9 H  s               199      2.014585   5 C  px        
   189     -1.962165   5 C  s                97     -1.940876   3 C  s         
 
 Vector   31  Occ=0.000000D+00  E= 6.334994D-02
              MO Center= -4.3D-02,  6.5D-01, -1.1D-04, r^2= 2.8D+01
   Bfn.  Coefficient  Atom+Function         Bfn.  Coefficient  Atom+Function  
  ----- ------------  ---------------      ----- ------------  ---------------
     5     24.377489   1 C  s                51     -9.880120   2 C  s         
   235     -9.825656   6 C  s               143      7.620925   4 C  s         
    97     -6.495687   3 C  s               189     -6.526085   5 C  s         
   326      5.865131   9 H  s               154      4.771106   4 C  py        
   303     -4.679263   8 H  s               349     -4.685407  10 H  s         
 
 Vector   32  Occ=0.000000D+00  E= 6.574596D-02
              MO Center= -5.8D-04, -2.5D-02,  5.3D-04, r^2= 1.8D+01
   Bfn.  Coefficient  Atom+Function         Bfn.  Coefficient  Atom+Function  
  ----- ------------  ---------------      ----- ------------  ---------------
   201     -0.980387   5 C  pz              109      0.972765   3 C  pz        
    63      0.775102   2 C  pz              247     -0.765419   6 C  pz        
   169     -0.676924   4 C  d  1             31     -0.583334   1 C  d  1      
   106      0.491698   3 C  pz              198     -0.493093   5 C  pz        
    60      0.488171   2 C  pz              244     -0.488552   6 C  pz        
 
 Vector   33  Occ=0.000000D+00  E= 6.826313D-02
              MO Center= -9.4D-03,  1.9D-01, -2.9D-04, r^2= 1.8D+01
   Bfn.  Coefficient  Atom+Function         Bfn.  Coefficient  Atom+Function  
  ----- ------------  ---------------      ----- ------------  ---------------
   247      1.028339   6 C  pz               63      1.020342   2 C  pz        
   109     -0.817187   3 C  pz              201     -0.806634   5 C  pz        
   155     -0.750706   4 C  pz               14      0.629581   1 C  pz        
   152     -0.617671   4 C  pz               17      0.458601   1 C  pz        
   213     -0.448298   5 C  d -1            121     -0.407019   3 C  d -1      
 
 Vector   34  Occ=0.000000D+00  E= 7.645748D-02
              MO Center=  2.9D-02, -1.6D-01, -1.2D-04, r^2= 3.4D+01
   Bfn.  Coefficient  Atom+Function         Bfn.  Coefficient  Atom+Function  
  ----- ------------  ---------------      ----- ------------  ---------------
    51     13.886843   2 C  s               235    -13.843261   6 C  s         
    97     12.414528   3 C  s               189    -12.409950   5 C  s         
    15      7.677825   1 C  px              153      7.710202   4 C  px        
   107      4.774050   3 C  px              303      4.695070   8 H  s         
   349     -4.689108  10 H  s               199      4.454021   5 C  px        
 
 Vector   35  Occ=0.000000D+00  E= 7.792150D-02
              MO Center=  2.0D-01, -3.3D+00,  1.3D-04, r^2= 2.1D+01
   Bfn.  Coefficient  Atom+Function         Bfn.  Coefficient  Atom+Function  
  ----- ------------  ---------------      ----- ------------  ---------------
   143     18.269658   4 C  s               235    -13.509415   6 C  s         
    51    -13.376643   2 C  s               326      7.025960   9 H  s         
   246      5.703410   6 C  py               62      5.628440   2 C  py        
   200      5.421931   5 C  py              154      5.275182   4 C  py        
   108      5.008833   3 C  py              279      4.187571   7 H  s         
 
 Vector   36  Occ=0.000000D+00  E= 8.155416D-02
              MO Center= -9.5D-02,  1.4D+00,  8.4D-05, r^2= 2.8D+01
   Bfn.  Coefficient  Atom+Function         Bfn.  Coefficient  Atom+Function  
  ----- ------------  ---------------      ----- ------------  ---------------
   143     20.712479   4 C  s                51     -8.942756   2 C  s         
   235     -8.953540   6 C  s               246      5.294789   6 C  py        
    62      5.135618   2 C  py              325     -4.965616   9 H  s         
   372     -4.577738  11 H  s               280     -4.551594   7 H  s         
   200      4.513117   5 C  py              326      4.500724   9 H  s         
 
 Vector   37  Occ=0.000000D+00  E= 8.317366D-02
              MO Center=  4.7D-02, -7.3D-01, -1.1D-05, r^2= 2.2D+01
   Bfn.  Coefficient  Atom+Function         Bfn.  Coefficient  Atom+Function  
  ----- ------------  ---------------      ----- ------------  ---------------
    97      4.961001   3 C  s               189     -4.919272   5 C  s         
    51     -3.168756   2 C  s               235      3.093938   6 C  s         
   108      2.812020   3 C  py              349     -2.814734  10 H  s         
   303      2.791719   8 H  s               200     -2.663233   5 C  py        
   153      2.602019   4 C  px               96      2.095822   3 C  s         
 
 Vector   38  Occ=0.000000D+00  E= 9.540247D-02
              MO Center= -7.4D-02,  8.8D-01,  8.6D-06, r^2= 3.1D+01
   Bfn.  Coefficient  Atom+Function         Bfn.  Coefficient  Atom+Function  
  ----- ------------  ---------------      ----- ------------  ---------------
   235    -17.833150   6 C  s                51     17.534718   2 C  s         
   280      7.221671   7 H  s               372     -7.213471  11 H  s         
   189      6.923953   5 C  s                97     -6.889352   3 C  s         
   108     -6.408723   3 C  py              303     -6.216618   8 H  s         
   349      6.185794  10 H  s               200      5.979867   5 C  py        
 
 Vector   39  Occ=0.000000D+00  E= 1.017999D-01
              MO Center= -2.1D-02,  1.1D-01, -3.3D-04, r^2= 1.9D+01
   Bfn.  Coefficient  Atom+Function         Bfn.  Coefficient  Atom+Function  
  ----- ------------  ---------------      ----- ------------  ---------------
    51     13.842821   2 C  s               235    -13.626062   6 C  s         
   189    -10.940111   5 C  s                97     10.827481   3 C  s         
    15      9.998224   1 C  px              153      9.715757   4 C  px        
   246     -6.120177   6 C  py              108     -6.084276   3 C  py        
   200      5.914800   5 C  py               62      5.875234   2 C  py        
 
 Vector   40  Occ=0.000000D+00  E= 1.064775D-01
              MO Center=  1.5D-02,  1.3D-01, -5.8D-04, r^2= 2.1D+01
   Bfn.  Coefficient  Atom+Function         Bfn.  Coefficient  Atom+Function  
  ----- ------------  ---------------      ----- ------------  ---------------
   143     18.273165   4 C  s               235    -10.063752   6 C  s         
    51     -9.809029   2 C  s                 5     -9.461374   1 C  s         
   107     -8.738108   3 C  px              199      7.987603   5 C  px        
   245     -7.085861   6 C  px              200      6.790784   5 C  py        
    61      6.439932   2 C  px              108      5.610156   3 C  py        
 
 Vector   41  Occ=0.000000D+00  E= 1.082041D-01
              MO Center= -1.9D-02,  1.6D-01, -9.8D-05, r^2= 2.2D+01
   Bfn.  Coefficient  Atom+Function         Bfn.  Coefficient  Atom+Function  
  ----- ------------  ---------------      ----- ------------  ---------------
    63      3.389880   2 C  pz              109     -3.406350   3 C  pz        
   247     -3.393033   6 C  pz              201      3.319767   5 C  pz        
    60      0.696543   2 C  pz              244     -0.697152   6 C  pz        
   106     -0.645329   3 C  pz              198      0.628224   5 C  pz        
    77     -0.378018   2 C  d  1            215      0.356994   5 C  d  1      
 
 Vector   42  Occ=0.000000D+00  E= 1.089660D-01
              MO Center=  3.8D-02, -4.7D-01,  2.1D-03, r^2= 2.1D+01
   Bfn.  Coefficient  Atom+Function         Bfn.  Coefficient  Atom+Function  
  ----- ------------  ---------------      ----- ------------  ---------------
   155      5.321401   4 C  pz              201     -3.482910   5 C  pz        
   109     -3.402098   3 C  pz               17      2.510656   1 C  pz        
   152      0.983455   4 C  pz              198     -0.611214   5 C  pz        
   106     -0.595354   3 C  pz              167      0.569726   4 C  d -1      
    63     -0.513593   2 C  pz               14      0.504552   1 C  pz        
 
 Vector   43  Occ=0.000000D+00  E= 1.094998D-01
              MO Center=  2.8D-02, -4.5D-01, -1.1D-03, r^2= 2.7D+01
   Bfn.  Coefficient  Atom+Function         Bfn.  Coefficient  Atom+Function  
  ----- ------------  ---------------      ----- ------------  ---------------
   326      7.669464   9 H  s               154      7.059045   4 C  py        
   303     -6.467160   8 H  s               349     -6.483197  10 H  s         
   143     -5.606045   4 C  s               108     -4.440327   3 C  py        
   200     -4.174304   5 C  py              246     -4.169746   6 C  py        
    62     -4.125539   2 C  py                4      3.925763   1 C  s         
 
 Vector   44  Occ=0.000000D+00  E= 1.178175D-01
              MO Center= -4.0D-02,  6.5D-01, -4.2D-04, r^2= 1.4D+01
   Bfn.  Coefficient  Atom+Function         Bfn.  Coefficient  Atom+Function  
  ----- ------------  ---------------      ----- ------------  ---------------
    17      6.880023   1 C  pz               63     -6.024507   2 C  pz        
   247     -6.022060   6 C  pz              109      5.053794   3 C  pz        
   201      5.052917   5 C  pz              155     -4.823817   4 C  pz        
    14      1.235843   1 C  pz               60     -1.020256   2 C  pz        
   244     -1.020920   6 C  pz              106      0.892483   3 C  pz        
 
 Vector   45  Occ=0.000000D+00  E= 1.264082D-01
              MO Center= -1.8D-02,  2.9D-01, -2.5D-05, r^2= 2.5D+01
   Bfn.  Coefficient  Atom+Function         Bfn.  Coefficient  Atom+Function  
  ----- ------------  ---------------      ----- ------------  ---------------
   235     -7.624157   6 C  s                51      7.551365   2 C  s         
   107      7.202107   3 C  px              199      7.133174   5 C  px        
   245     -7.021934   6 C  px               61     -6.946342   2 C  px        
    15      6.445715   1 C  px               97     -6.194262   3 C  s         
   189      6.191386   5 C  s               153     -5.822402   4 C  px        
 
 Vector   46  Occ=0.000000D+00  E= 1.274499D-01
              MO Center= -1.4D-02,  1.9D-01,  1.3D-04, r^2= 2.6D+01
   Bfn.  Coefficient  Atom+Function         Bfn.  Coefficient  Atom+Function  
  ----- ------------  ---------------      ----- ------------  ---------------
   154     -8.033452   4 C  py               16      7.427459   1 C  py        
   108      6.887339   3 C  py               62     -6.571870   2 C  py        
   200      6.576767   5 C  py              246     -6.392908   6 C  py        
   326     -4.051533   9 H  s                 5      3.564791   1 C  s         
   303      3.173629   8 H  s               349      3.156271  10 H  s         
 
 Vector   47  Occ=0.000000D+00  E= 1.609561D-01
              MO Center= -1.0D-02,  1.4D-01,  9.0D-05, r^2= 1.7D+01
   Bfn.  Coefficient  Atom+Function         Bfn.  Coefficient  Atom+Function  
  ----- ------------  ---------------      ----- ------------  ---------------
    17      8.192754   1 C  pz               63     -8.010527   2 C  pz        
   247     -7.998293   6 C  pz              155     -7.856487   4 C  pz        
   109      7.775965   3 C  pz              201      7.766478   5 C  pz        
    60     -1.192788   2 C  pz              106      1.193847   3 C  pz        
   198      1.191861   5 C  pz              244     -1.191180   6 C  pz        
 
 Vector   48  Occ=0.000000D+00  E= 1.660208D-01
              MO Center= -8.6D-02,  1.4D+00,  3.2D-04, r^2= 2.2D+01
   Bfn.  Coefficient  Atom+Function         Bfn.  Coefficient  Atom+Function  
  ----- ------------  ---------------      ----- ------------  ---------------
     5     59.211853   1 C  s                51    -26.141826   2 C  s         
   143     25.963571   4 C  s               235    -25.823893   6 C  s         
    97    -14.410297   3 C  s               189    -14.422199   5 C  s         
   154      7.427392   4 C  py              245      6.809677   6 C  px        
    61     -6.399593   2 C  px              326      6.156378   9 H  s         
 
 Vector   49  Occ=0.000000D+00  E= 1.754232D-01
              MO Center=  2.5D-02, -3.9D-01, -1.7D-04, r^2= 1.1D+01
   Bfn.  Coefficient  Atom+Function         Bfn.  Coefficient  Atom+Function  
  ----- ------------  ---------------      ----- ------------  ---------------
   335      1.104568   9 H  pz              312      1.078996   8 H  pz        
   358      1.079366  10 H  pz              289      0.973399   7 H  pz        
   381      0.972810  11 H  pz               17      0.959505   1 C  pz        
    63     -0.886279   2 C  pz              247     -0.883730   6 C  pz        
   106     -0.845252   3 C  pz              198     -0.840929   5 C  pz        
 
 Vector   50  Occ=0.000000D+00  E= 1.864241D-01
              MO Center=  3.1D-02, -5.5D-01,  9.8D-05, r^2= 1.5D+01
   Bfn.  Coefficient  Atom+Function         Bfn.  Coefficient  Atom+Function  
  ----- ------------  ---------------      ----- ------------  ---------------
     5     15.508749   1 C  s                97     -7.266677   3 C  s         
   189     -7.278660   5 C  s                51     -4.618203   2 C  s         
   325      4.424761   9 H  s               235     -4.334454   6 C  s         
    62     -4.059135   2 C  py              154      3.979103   4 C  py        
   246     -3.810991   6 C  py              302      3.267908   8 H  s         
 
 Vector   51  Occ=0.000000D+00  E= 1.980394D-01
              MO Center= -1.0D-01,  4.6D-01,  3.4D-04, r^2= 2.3D+01
   Bfn.  Coefficient  Atom+Function         Bfn.  Coefficient  Atom+Function  
  ----- ------------  ---------------      ----- ------------  ---------------
    51     46.425663   2 C  s               235    -42.593287   6 C  s         
   189    -25.747198   5 C  s                97     24.629404   3 C  s         
    15     18.451307   1 C  px              153     17.069472   4 C  px        
   348     14.191388  10 H  s               302    -13.788084   8 H  s         
   108     -9.196478   3 C  py              279     -8.704053   7 H  s         
 
 Vector   52  Occ=0.000000D+00  E= 1.984424D-01
              MO Center=  1.4D-01, -7.2D-01, -5.0D-04, r^2= 2.3D+01
   Bfn.  Coefficient  Atom+Function         Bfn.  Coefficient  Atom+Function  
  ----- ------------  ---------------      ----- ------------  ---------------
   143     61.214836   4 C  s               235    -37.255874   6 C  s         
    51    -31.701824   2 C  s               325    -16.835548   9 H  s         
    62     14.745701   2 C  py              246     14.428554   6 C  py        
   200     14.350781   5 C  py              108     11.969525   3 C  py        
     5    -11.553592   1 C  s               371     11.562629  11 H  s         
 
 Vector   53  Occ=0.000000D+00  E= 2.154359D-01
              MO Center=  8.1D-02, -1.4D+00, -3.6D-05, r^2= 1.5D+01
   Bfn.  Coefficient  Atom+Function         Bfn.  Coefficient  Atom+Function  
  ----- ------------  ---------------      ----- ------------  ---------------
    97     13.839988   3 C  s               189    -13.883758   5 C  s         
    96      6.567129   3 C  s               188     -6.530356   5 C  s         
   153      6.323666   4 C  px              279     -5.170557   7 H  s         
   371      5.101212  11 H  s               303      4.751347   8 H  s         
   349     -4.721102  10 H  s               246     -4.450898   6 C  py        
 
 Vector   54  Occ=0.000000D+00  E= 2.182419D-01
              MO Center= -7.4D-03, -2.8D-01, -5.7D-05, r^2= 1.5D+01
   Bfn.  Coefficient  Atom+Function         Bfn.  Coefficient  Atom+Function  
  ----- ------------  ---------------      ----- ------------  ---------------
   143     25.442258   4 C  s               235    -21.517487   6 C  s         
     5     15.749170   1 C  s                51    -13.590284   2 C  s         
    16     -6.266487   1 C  py              325     -5.965129   9 H  s         
    62      5.363517   2 C  py              200      4.731617   5 C  py        
   246      4.061477   6 C  py              279      3.744429   7 H  s         
 
 Vector   55  Occ=0.000000D+00  E= 2.191382D-01
              MO Center=  4.7D-02, -8.9D-02,  9.4D-04, r^2= 1.5D+01
   Bfn.  Coefficient  Atom+Function         Bfn.  Coefficient  Atom+Function  
  ----- ------------  ---------------      ----- ------------  ---------------
    51     22.304221   2 C  s               235    -16.499767   6 C  s         
   108     -8.776997   3 C  py              200      7.433403   5 C  py        
    15      7.329241   1 C  px              302     -6.823797   8 H  s         
   348      6.781052  10 H  s               153      6.177996   4 C  px        
   246     -4.715629   6 C  py              143     -4.220097   4 C  s         
 
 Vector   56  Occ=0.000000D+00  E= 2.301132D-01
              MO Center= -1.1D-01,  2.8D-01,  1.9D-03, r^2= 1.8D+01
   Bfn.  Coefficient  Atom+Function         Bfn.  Coefficient  Atom+Function  
  ----- ------------  ---------------      ----- ------------  ---------------
   107      4.898466   3 C  px              199      4.674746   5 C  px        
   153     -3.560878   4 C  px               50     -3.353301   2 C  s         
   303      3.310468   8 H  s               234      3.173335   6 C  s         
   349     -3.008749  10 H  s                15     -2.628933   1 C  px        
   108      2.335793   3 C  py               59      1.982244   2 C  py        
 
 Vector   57  Occ=0.000000D+00  E= 2.311983D-01
              MO Center= -1.1D-03,  8.9D-04, -3.8D-03, r^2= 1.6D+01
   Bfn.  Coefficient  Atom+Function         Bfn.  Coefficient  Atom+Function  
  ----- ------------  ---------------      ----- ------------  ---------------
   106      2.144775   3 C  pz              198     -2.140815   5 C  pz        
    60      2.047597   2 C  pz              244     -2.046436   6 C  pz        
   312     -1.817812   8 H  pz              358      1.818914  10 H  pz        
   289     -1.723547   7 H  pz              381      1.717410  11 H  pz        
   169     -1.379508   4 C  d  1             31     -1.247060   1 C  d  1      
 
 Vector   58  Occ=0.000000D+00  E= 2.354056D-01
              MO Center=  1.7D-01,  2.1D-01,  7.8D-04, r^2= 1.6D+01
   Bfn.  Coefficient  Atom+Function         Bfn.  Coefficient  Atom+Function  
  ----- ------------  ---------------      ----- ------------  ---------------
   235    -15.645668   6 C  s               143     14.644404   4 C  s         
   107     -8.040641   3 C  px              199      7.524430   5 C  px        
   189      6.353624   5 C  s                61      5.437779   2 C  px        
   245     -5.274577   6 C  px               51     -4.909914   2 C  s         
    97     -4.913243   3 C  s               303     -4.890753   8 H  s         
 
 Vector   59  Occ=0.000000D+00  E= 2.365394D-01
              MO Center= -1.1D-01,  7.8D-02,  6.4D-04, r^2= 1.7D+01
   Bfn.  Coefficient  Atom+Function         Bfn.  Coefficient  Atom+Function  
  ----- ------------  ---------------      ----- ------------  ---------------
    51     33.057540   2 C  s                97    -32.819937   3 C  s         
   189     32.546422   5 C  s               235    -29.104476   6 C  s         
   188     14.482593   5 C  s                96    -13.903215   3 C  s         
   371    -11.028679  11 H  s               348     10.557943  10 H  s         
   302    -10.475714   8 H  s               279     10.249446   7 H  s         
 
 Vector   60  Occ=0.000000D+00  E= 2.434519D-01
              MO Center=  4.7D-03, -4.3D-02, -3.9D-04, r^2= 1.5D+01
   Bfn.  Coefficient  Atom+Function         Bfn.  Coefficient  Atom+Function  
  ----- ------------  ---------------      ----- ------------  ---------------
   152      3.413921   4 C  pz               14     -3.025931   1 C  pz        
   289      2.166124   7 H  pz              381      2.175679  11 H  pz        
   335     -2.124782   9 H  pz              261      2.007858   6 C  d  1      
    77     -1.981741   2 C  d  1             63     -1.597389   2 C  pz        
   247     -1.598610   6 C  pz              155      1.369919   4 C  pz        
 
 Vector   61  Occ=0.000000D+00  E= 2.594979D-01
              MO Center=  2.6D-02, -6.0D-01,  6.5D-05, r^2= 1.7D+01
   Bfn.  Coefficient  Atom+Function         Bfn.  Coefficient  Atom+Function  
  ----- ------------  ---------------      ----- ------------  ---------------
     5      8.710594   1 C  s               108     -6.702626   3 C  py        
   200     -6.001348   5 C  py              303     -5.210196   8 H  s         
   349     -5.147655  10 H  s               199      5.038371   5 C  px        
   197     -4.826444   5 C  py              143     -4.801969   4 C  s         
   105     -4.753242   3 C  py              154      4.361975   4 C  py        
 
 Vector   62  Occ=0.000000D+00  E= 2.620265D-01
              MO Center=  7.8D-02, -1.1D+00, -5.2D-05, r^2= 1.7D+01
   Bfn.  Coefficient  Atom+Function         Bfn.  Coefficient  Atom+Function  
  ----- ------------  ---------------      ----- ------------  ---------------
     5     18.958924   1 C  s               154     15.375105   4 C  py        
   143     15.150841   4 C  s                51    -14.916198   2 C  s         
   235    -14.206680   6 C  s               326      9.186877   9 H  s         
     4      6.017211   1 C  s               189     -4.837909   5 C  s         
   108     -4.676251   3 C  py               97     -4.482016   3 C  s         
 
 Vector   63  Occ=0.000000D+00  E= 2.676762D-01
              MO Center= -4.1D-02,  4.3D-01,  6.2D-05, r^2= 2.0D+01
   Bfn.  Coefficient  Atom+Function         Bfn.  Coefficient  Atom+Function  
  ----- ------------  ---------------      ----- ------------  ---------------
   235    -20.416356   6 C  s                51     19.968928   2 C  s         
    97    -11.966352   3 C  s               189     11.850764   5 C  s         
    61     10.986014   2 C  px              245     10.290203   6 C  px        
    96     -8.894428   3 C  s               279      8.807188   7 H  s         
   371     -8.717380  11 H  s               188      8.613070   5 C  s         
 
 Vector   64  Occ=0.000000D+00  E= 2.747967D-01
              MO Center= -4.6D-03,  2.3D-02,  6.8D-05, r^2= 1.4D+01
   Bfn.  Coefficient  Atom+Function         Bfn.  Coefficient  Atom+Function  
  ----- ------------  ---------------      ----- ------------  ---------------
   143      8.951277   4 C  s                 5      8.704921   1 C  s         
   154      5.769416   4 C  py              279     -5.700413   7 H  s         
   371     -5.608292  11 H  s               302     -4.678953   8 H  s         
   348     -4.616382  10 H  s               325     -4.356754   9 H  s         
    16     -4.036978   1 C  py              246      3.263400   6 C  py        
 
 Vector   65  Occ=0.000000D+00  E= 2.829797D-01
              MO Center= -1.8D-02,  1.8D-01, -1.6D-05, r^2= 1.6D+01
   Bfn.  Coefficient  Atom+Function         Bfn.  Coefficient  Atom+Function  
  ----- ------------  ---------------      ----- ------------  ---------------
    12      9.528462   1 C  px               97      8.914124   3 C  s         
   189     -8.878287   5 C  s               348     -8.172267  10 H  s         
    51     -8.005389   2 C  s               235      8.040003   6 C  s         
   302      8.023006   8 H  s               199      7.651616   5 C  px        
   107      7.145893   3 C  px              150      6.194697   4 C  px        
 
 Vector   66  Occ=0.000000D+00  E= 2.954385D-01
              MO Center= -1.0D-03,  5.2D-02, -2.4D-05, r^2= 1.6D+01
   Bfn.  Coefficient  Atom+Function         Bfn.  Coefficient  Atom+Function  
  ----- ------------  ---------------      ----- ------------  ---------------
    63      3.194562   2 C  pz              247     -3.208037   6 C  pz        
   109     -3.187626   3 C  pz              201      3.189311   5 C  pz        
   289     -2.278074   7 H  pz              381      2.281015  11 H  pz        
    60      2.259015   2 C  pz              244     -2.254611   6 C  pz        
   312      2.259117   8 H  pz              358     -2.264474  10 H  pz        
 
 Vector   67  Occ=0.000000D+00  E= 2.962838D-01
              MO Center= -4.7D-02,  9.6D-01,  4.1D-04, r^2= 1.4D+01
   Bfn.  Coefficient  Atom+Function         Bfn.  Coefficient  Atom+Function  
  ----- ------------  ---------------      ----- ------------  ---------------
     4     10.426927   1 C  s                59     -5.740699   2 C  py        
   243     -5.634171   6 C  py                5      5.528522   1 C  s         
   105     -5.520522   3 C  py              197     -5.137033   5 C  py        
    16      4.279747   1 C  py              279     -4.192451   7 H  s         
   371     -4.184356  11 H  s                13      3.917582   1 C  py        
 
 Vector   68  Occ=0.000000D+00  E= 3.080396D-01
              MO Center=  5.4D-03, -2.7D-01, -4.6D-04, r^2= 1.5D+01
   Bfn.  Coefficient  Atom+Function         Bfn.  Coefficient  Atom+Function  
  ----- ------------  ---------------      ----- ------------  ---------------
   155      5.178376   4 C  pz               14      4.363576   1 C  pz        
   109     -3.737691   3 C  pz              201     -3.741864   5 C  pz        
   335     -2.710726   9 H  pz               60     -2.049356   2 C  pz        
   244     -2.050028   6 C  pz              152      1.852108   4 C  pz        
    17      1.841230   1 C  pz               29     -1.719780   1 C  d -1      
 
 Vector   69  Occ=0.000000D+00  E= 3.150415D-01
              MO Center=  1.5D-02, -7.2D-02,  1.6D-05, r^2= 9.1D+00
   Bfn.  Coefficient  Atom+Function         Bfn.  Coefficient  Atom+Function  
  ----- ------------  ---------------      ----- ------------  ---------------
   261      1.229490   6 C  d  1             77      1.162560   2 C  d  1      
   169     -1.086659   4 C  d  1             75     -0.977124   2 C  d -1      
   259      0.922633   6 C  d -1            289     -0.772825   7 H  pz        
   381      0.669433  11 H  pz               31      0.634351   1 C  d  1      
    60     -0.358415   2 C  pz              244      0.315025   6 C  pz        
 
 Vector   70  Occ=0.000000D+00  E= 3.284698D-01
              MO Center=  2.4D-02, -6.2D-01,  7.9D-05, r^2= 1.5D+01
   Bfn.  Coefficient  Atom+Function         Bfn.  Coefficient  Atom+Function  
  ----- ------------  ---------------      ----- ------------  ---------------
   142     12.140690   4 C  s                96      8.814122   3 C  s         
   188      8.618010   5 C  s               151     -6.843356   4 C  py        
   325     -5.846116   9 H  s                 4     -5.236164   1 C  s         
   334     -5.009298   9 H  py                5      4.902980   1 C  s         
   302     -4.561039   8 H  s               243      4.262236   6 C  py        
 
 Vector   71  Occ=0.000000D+00  E= 3.347646D-01
              MO Center=  5.3D-03,  2.6D-02,  1.9D-04, r^2= 7.7D+00
   Bfn.  Coefficient  Atom+Function         Bfn.  Coefficient  Atom+Function  
  ----- ------------  ---------------      ----- ------------  ---------------
   381      2.054338  11 H  pz              289      2.003273   7 H  pz        
   335      1.838937   9 H  pz               14     -1.773189   1 C  pz        
   155     -1.701727   4 C  pz               63     -1.546862   2 C  pz        
   247     -1.540709   6 C  pz               77     -1.477532   2 C  d  1      
   261      1.448626   6 C  d  1            106     -1.291896   3 C  pz        
 
 Vector   72  Occ=0.000000D+00  E= 3.433180D-01
              MO Center=  2.3D-02, -3.9D-01, -4.4D-03, r^2= 1.2D+01
   Bfn.  Coefficient  Atom+Function         Bfn.  Coefficient  Atom+Function  
  ----- ------------  ---------------      ----- ------------  ---------------
   169      3.292956   4 C  d  1             31      2.703018   1 C  d  1      
   312     -2.491672   8 H  pz              358      2.470556  10 H  pz        
   123      2.180963   3 C  d  1            215      2.146934   5 C  d  1      
   198      1.810730   5 C  pz              106     -1.785142   3 C  pz        
   289     -1.426274   7 H  pz              381      1.428862  11 H  pz        
 
 Vector   73  Occ=0.000000D+00  E= 3.449214D-01
              MO Center=  2.6D-04,  5.7D-01, -2.1D-03, r^2= 1.2D+01
   Bfn.  Coefficient  Atom+Function         Bfn.  Coefficient  Atom+Function  
  ----- ------------  ---------------      ----- ------------  ---------------
   143     23.700914   4 C  s               325    -13.018101   9 H  s         
    51    -12.108806   2 C  s               371     11.946000  11 H  s         
   279     11.862048   7 H  s               235    -11.416371   6 C  s         
     5     -7.678958   1 C  s               197     -6.982808   5 C  py        
   105     -6.708136   3 C  py              243     -6.153611   6 C  py        
 
 Vector   74  Occ=0.000000D+00  E= 3.478208D-01
              MO Center=  2.0D-04, -1.5D-01,  4.0D-03, r^2= 1.2D+01
   Bfn.  Coefficient  Atom+Function         Bfn.  Coefficient  Atom+Function  
  ----- ------------  ---------------      ----- ------------  ---------------
   235    -21.670732   6 C  s                51     20.651055   2 C  s         
   348     12.046267  10 H  s               302    -11.907830   8 H  s         
   189    -10.986131   5 C  s                97     10.911634   3 C  s         
   279     -9.850587   7 H  s               371      9.665169  11 H  s         
    12     -8.099311   1 C  px              150     -7.020943   4 C  px        
 
 Vector   75  Occ=0.000000D+00  E= 3.481667D-01
              MO Center=  2.3D-02, -5.2D-01,  3.2D-03, r^2= 1.3D+01
   Bfn.  Coefficient  Atom+Function         Bfn.  Coefficient  Atom+Function  
  ----- ------------  ---------------      ----- ------------  ---------------
   155     -3.970788   4 C  pz               17      3.780145   1 C  pz        
   109      3.557075   3 C  pz              201      3.564712   5 C  pz        
    63     -3.445582   2 C  pz              247     -3.455436   6 C  pz        
   152     -3.002973   4 C  pz              289      2.301182   7 H  pz        
   213     -2.270863   5 C  d -1             75     -2.245971   2 C  d -1      
 
 Vector   76  Occ=0.000000D+00  E= 3.527412D-01
              MO Center=  2.2D-02, -5.3D-01, -2.2D-04, r^2= 1.4D+01
   Bfn.  Coefficient  Atom+Function         Bfn.  Coefficient  Atom+Function  
  ----- ------------  ---------------      ----- ------------  ---------------
    17      6.394969   1 C  pz               63     -5.878754   2 C  pz        
   247     -5.847822   6 C  pz              109      5.142796   3 C  pz        
   201      5.116789   5 C  pz              155     -4.857140   4 C  pz        
   335      3.960537   9 H  pz               14      3.795566   1 C  pz        
   167      3.077256   4 C  d -1             60     -2.734007   2 C  pz        
 
 Vector   77  Occ=0.000000D+00  E= 3.546357D-01
              MO Center= -7.8D-03,  3.2D-01, -6.7D-04, r^2= 1.5D+01
   Bfn.  Coefficient  Atom+Function         Bfn.  Coefficient  Atom+Function  
  ----- ------------  ---------------      ----- ------------  ---------------
     5     31.355762   1 C  s                51    -16.417541   2 C  s         
   143     15.876851   4 C  s               235    -15.052985   6 C  s         
   151    -11.067331   4 C  py              196     -7.538099   5 C  px        
    50      7.417976   2 C  s               234      7.347591   6 C  s         
    13      7.290999   1 C  py              104      7.214927   3 C  px        
 
 Vector   78  Occ=0.000000D+00  E= 3.599081D-01
              MO Center= -2.8D-02,  7.5D-01,  2.3D-04, r^2= 1.3D+01
   Bfn.  Coefficient  Atom+Function         Bfn.  Coefficient  Atom+Function  
  ----- ------------  ---------------      ----- ------------  ---------------
   381     -3.418853  11 H  pz              289      3.392784   7 H  pz        
   244     -3.200540   6 C  pz               60      3.114338   2 C  pz        
    77     -3.057165   2 C  d  1            121     -3.067855   3 C  d -1      
   259      3.038605   6 C  d -1            213      2.810476   5 C  d -1      
   312     -2.780916   8 H  pz              106     -2.751859   3 C  pz        
 
 Vector   79  Occ=0.000000D+00  E= 3.685598D-01
              MO Center=  6.1D-02, -5.7D-01, -1.6D-04, r^2= 1.3D+01
   Bfn.  Coefficient  Atom+Function         Bfn.  Coefficient  Atom+Function  
  ----- ------------  ---------------      ----- ------------  ---------------
   188     10.844820   5 C  s                96     10.616211   3 C  s         
   196      8.536496   5 C  px              104     -8.442366   3 C  px        
   142     -7.534355   4 C  s                 5      7.225634   1 C  s         
   212      5.412365   5 C  d -2            258      5.347770   6 C  d -2      
   120     -5.222169   3 C  d -2            242     -5.036916   6 C  px        
 
 Vector   80  Occ=0.000000D+00  E= 3.721002D-01
              MO Center= -1.1D-02, -3.1D-01, -2.1D-04, r^2= 1.3D+01
   Bfn.  Coefficient  Atom+Function         Bfn.  Coefficient  Atom+Function  
  ----- ------------  ---------------      ----- ------------  ---------------
   189      9.894383   5 C  s                97     -9.775067   3 C  s         
   234      9.098812   6 C  s                50     -8.957980   2 C  s         
   279      5.671334   7 H  s               371     -5.282711  11 H  s         
   357     -5.213083  10 H  py              235     -5.183136   6 C  s         
   311      5.158995   8 H  py              212      4.861393   5 C  d -2      
 
 Vector   81  Occ=0.000000D+00  E= 3.819134D-01
              MO Center=  4.8D-02, -5.7D-01, -5.2D-06, r^2= 1.6D+01
   Bfn.  Coefficient  Atom+Function         Bfn.  Coefficient  Atom+Function  
  ----- ------------  ---------------      ----- ------------  ---------------
   166      9.085798   4 C  d -2            333      7.120327   9 H  px        
   150     -6.660315   4 C  px              216     -6.538050   5 C  d  2      
   124      6.117948   3 C  d  2            279      5.988419   7 H  s         
   371     -5.744464  11 H  s               310      5.071134   8 H  px        
   356      5.037729  10 H  px               96     -4.843540   3 C  s         
 
 Vector   82  Occ=0.000000D+00  E= 3.932663D-01
              MO Center= -3.8D-02,  4.6D-01,  2.1D-04, r^2= 1.5D+01
   Bfn.  Coefficient  Atom+Function         Bfn.  Coefficient  Atom+Function  
  ----- ------------  ---------------      ----- ------------  ---------------
    12     12.172905   1 C  px               51    -11.225017   2 C  s         
   235     10.877520   6 C  s                78     -8.948615   2 C  d  2      
   262      8.927037   6 C  d  2             15     -6.823629   1 C  px        
   216      6.655639   5 C  d  2            124     -5.874552   3 C  d  2      
   153     -5.859722   4 C  px              379     -5.846742  11 H  px        
 
 Vector   83  Occ=0.000000D+00  E= 3.960280D-01
              MO Center= -5.7D-02,  8.3D-01,  1.7D-04, r^2= 1.2D+01
   Bfn.  Coefficient  Atom+Function         Bfn.  Coefficient  Atom+Function  
  ----- ------------  ---------------      ----- ------------  ---------------
   152     -7.531585   4 C  pz              106      7.345974   3 C  pz        
   198      7.327515   5 C  pz               60     -6.487512   2 C  pz        
   244     -6.473173   6 C  pz              167     -6.336120   4 C  d -1      
   215      5.128373   5 C  d  1            123     -4.698809   3 C  d  1      
    14      4.573515   1 C  pz              259      3.992571   6 C  d -1      
 
 Vector   84  Occ=0.000000D+00  E= 4.017307D-01
              MO Center= -7.2D-02,  5.2D-01, -7.0D-04, r^2= 1.5D+01
   Bfn.  Coefficient  Atom+Function         Bfn.  Coefficient  Atom+Function  
  ----- ------------  ---------------      ----- ------------  ---------------
     5     51.717195   1 C  s                51    -20.592831   2 C  s         
   235    -18.939849   6 C  s               189    -17.441564   5 C  s         
    97    -17.320943   3 C  s               143     11.652605   4 C  s         
   142    -10.273043   4 C  s                 4     -9.670463   1 C  s         
   234     -8.341492   6 C  s               325      7.869657   9 H  s         
 
 Vector   85  Occ=0.000000D+00  E= 4.053136D-01
              MO Center= -1.8D-02,  8.5D-02, -6.9D-05, r^2= 1.3D+01
   Bfn.  Coefficient  Atom+Function         Bfn.  Coefficient  Atom+Function  
  ----- ------------  ---------------      ----- ------------  ---------------
[...]
     Occ.   15 beta  a   ---  Virt.   21 beta  a    0.10227 X
     Occ.   19 beta  a   ---  Virt.   24 beta  a    0.22066 X
     Occ.   20 beta  a   ---  Virt.   22 beta  a   -0.14444 X
  ----------------------------------------------------------------------------
  Root  27         a              0.251971257 a.u.                6.8565 eV 
  <S2> =   1.6626
  ----------------------------------------------------------------------------
     Transition Moments    X -0.00002   Y -0.00001   Z -0.24449
     Transition Moments   XX -0.00005  XY  0.00006  XZ -0.01770
     Transition Moments   YY -0.00013  YZ -0.16855  ZZ -0.00003
     Dipole Oscillator Strength                    0.0100408113
     Electric Quadrupole                           0.0000000024
     Magnetic Dipole                               0.0000000310
     Total Oscillator Strength                     0.0100408448
 
     Occ.   19 alpha a   ---  Virt.   26 alpha a   -0.97225 X
     Occ.   19 alpha a   ---  Virt.   35 alpha a    0.07044 X
     Occ.   19 alpha a   ---  Virt.   36 alpha a    0.07292 X
     Occ.   20 alpha a   ---  Virt.   25 alpha a   -0.11545 X
     Occ.   20 alpha a   ---  Virt.   26 alpha a    0.13938 X
     Occ.   20 beta  a   ---  Virt.   26 beta  a   -0.05027 X
  ----------------------------------------------------------------------------
  Root  28         a              0.252625684 a.u.                6.8743 eV 
  <S2> =   1.8889
  ----------------------------------------------------------------------------
     Transition Moments    X -0.00003   Y -0.00001   Z  0.01641
     Transition Moments   XX -0.00000  XY  0.00001  XZ -0.39258
     Transition Moments   YY -0.00006  YZ -0.01404  ZZ -0.00002
     Dipole Oscillator Strength                    0.0000453485
     Electric Quadrupole                           0.0000000132
     Magnetic Dipole                               0.0000000097
     Total Oscillator Strength                     0.0000453714
 
     Occ.   19 alpha a   ---  Virt.   25 alpha a    0.24664 X
     Occ.   19 alpha a   ---  Virt.   26 alpha a    0.13958 X
     Occ.   20 alpha a   ---  Virt.   26 alpha a    0.95028 X
     Occ.   20 alpha a   ---  Virt.   35 alpha a   -0.06083 X
     Occ.   20 alpha a   ---  Virt.   36 alpha a   -0.06476 X
     Occ.   19 beta  a   ---  Virt.   26 beta  a   -0.06495 X
  ----------------------------------------------------------------------------
  Root  29         a              0.253988829 a.u.                6.9114 eV 
  <S2> =   1.6183
  ----------------------------------------------------------------------------
     Transition Moments    X -0.00005   Y  0.00002   Z -0.00191
     Transition Moments   XX  0.00003  XY -0.00004  XZ  0.49373
     Transition Moments   YY  0.00011  YZ  0.03133  ZZ  0.00003
     Dipole Oscillator Strength                    0.0000006199
     Electric Quadrupole                           0.0000000214
     Magnetic Dipole                               0.0000000109
     Total Oscillator Strength                     0.0000006521
 
     Occ.   20 alpha a   ---  Virt.   26 alpha a   -0.06912 X
     Occ.   19 beta  a   ---  Virt.   26 beta  a   -0.98515 X
     Occ.   19 beta  a   ---  Virt.   35 beta  a    0.05783 X
     Occ.   19 beta  a   ---  Virt.   36 beta  a    0.07401 X
     Occ.   20 beta  a   ---  Virt.   25 beta  a   -0.09684 X
  ----------------------------------------------------------------------------
  Root  30         a              0.254758182 a.u.                6.9323 eV 
  <S2> =   0.7707
  ----------------------------------------------------------------------------
     Transition Moments    X -1.50245   Y -0.11073   Z  0.00003
     Transition Moments   XX -0.03907  XY  0.18860  XZ -0.00004
     Transition Moments   YY  0.02329  YZ  0.00002  ZZ -0.00126
     Dipole Oscillator Strength                    0.3854708726
     Electric Quadrupole                           0.0000000032
     Magnetic Dipole                               0.0000000194
     Total Oscillator Strength                     0.3854708952
 
     Occ.   19 alpha a   ---  Virt.   22 alpha a   -0.37862 X
     Occ.   19 alpha a   ---  Virt.   22 alpha a    0.05290 Y
     Occ.   20 alpha a   ---  Virt.   23 alpha a    0.42507 X
     Occ.   20 alpha a   ---  Virt.   23 alpha a   -0.05089 Y
     Occ.   20 alpha a   ---  Virt.   29 alpha a   -0.14058 X
     Occ.   21 alpha a   ---  Virt.   25 alpha a    0.07637 X
     Occ.   21 alpha a   ---  Virt.   27 alpha a   -0.38921 X
     Occ.   13 beta  a   ---  Virt.   21 beta  a    0.12623 X
     Occ.   15 beta  a   ---  Virt.   21 beta  a    0.27045 X
     Occ.   19 beta  a   ---  Virt.   24 beta  a    0.49870 X
     Occ.   19 beta  a   ---  Virt.   29 beta  a   -0.13915 X
     Occ.   20 beta  a   ---  Virt.   22 beta  a   -0.34842 X
     Occ.   20 beta  a   ---  Virt.   22 beta  a    0.05612 Y
  ----------------------------------------------------------------------------
  Root  31         a              0.255403540 a.u.                6.9499 eV 
  <S2> =   0.8012
  ----------------------------------------------------------------------------
     Transition Moments    X -0.05321   Y  0.63535   Z  0.00000
     Transition Moments   XX  0.65007  XY -0.07704  XZ -0.00002
     Transition Moments   YY  1.88598  YZ  0.00003  ZZ  0.14660
     Dipole Oscillator Strength                    0.0692137624
     Electric Quadrupole                           0.0000000716
     Magnetic Dipole                               0.0000000000
     Total Oscillator Strength                     0.0692138340
 
     Occ.   19 alpha a   ---  Virt.   23 alpha a   -0.10478 X
     Occ.   20 alpha a   ---  Virt.   22 alpha a   -0.11396 X
     Occ.   21 alpha a   ---  Virt.   26 alpha a   -0.18450 X
     Occ.   21 alpha a   ---  Virt.   28 alpha a    0.90985 X
     Occ.   21 alpha a   ---  Virt.   30 alpha a    0.12846 X
     Occ.   21 alpha a   ---  Virt.   31 alpha a    0.16280 X
     Occ.   21 alpha a   ---  Virt.   48 alpha a   -0.05657 X
     Occ.   16 beta  a   ---  Virt.   21 beta  a   -0.18857 X
     Occ.   19 beta  a   ---  Virt.   22 beta  a   -0.10930 X
     Occ.   20 beta  a   ---  Virt.   24 beta  a   -0.09633 X
  ----------------------------------------------------------------------------
  Root  32         a              0.260750387 a.u.                7.0954 eV 
  <S2> =   0.8001
  ----------------------------------------------------------------------------
     Transition Moments    X  0.00001   Y -0.00002   Z  0.09559
     Transition Moments   XX -0.00000  XY -0.00000  XZ -0.04565
     Transition Moments   YY -0.00005  YZ  0.70486  ZZ -0.00000
     Dipole Oscillator Strength                    0.0015883153
     Electric Quadrupole                           0.0000000471
     Magnetic Dipole                               0.0000000330
     Total Oscillator Strength                     0.0015883954
 
     Occ.   21 alpha a   ---  Virt.   29 alpha a   -0.97947 X
     Occ.   21 alpha a   ---  Virt.   33 alpha a   -0.17996 X
  ----------------------------------------------------------------------------
  Root  33         a              0.265400494 a.u.                7.2219 eV 
  <S2> =   1.7807
  ----------------------------------------------------------------------------
     Transition Moments    X  0.00001   Y  0.00001   Z  0.00004
     Transition Moments   XX -0.00006  XY  0.00002  XZ  0.54561
     Transition Moments   YY -0.00003  YZ  0.03759  ZZ -0.00004
     Dipole Oscillator Strength                    0.0000000003
     Electric Quadrupole                           0.0000000298
     Magnetic Dipole                               0.0000000006
     Total Oscillator Strength                     0.0000000306
 
     Occ.   20 beta  a   ---  Virt.   27 beta  a    0.99103 X
     Occ.   20 beta  a   ---  Virt.   38 beta  a   -0.09649 X
  ----------------------------------------------------------------------------
  Root  34         a              0.267189576 a.u.                7.2706 eV 
  <S2> =   0.8216
  ----------------------------------------------------------------------------
     Transition Moments    X  0.08411   Y -1.20004   Z  0.00000
     Transition Moments   XX  0.01886  XY -0.04530  XZ  0.00001
     Transition Moments   YY  0.69473  YZ  0.00005  ZZ  0.04591
     Dipole Oscillator Strength                    0.2577776540
     Electric Quadrupole                           0.0000000151
     Magnetic Dipole                               0.0000000000
     Total Oscillator Strength                     0.2577776691
 
     Occ.   17 alpha a   ---  Virt.   23 alpha a   -0.08604 X
     Occ.   19 alpha a   ---  Virt.   23 alpha a    0.30397 X
     Occ.   19 alpha a   ---  Virt.   29 alpha a    0.16118 X
     Occ.   20 alpha a   ---  Virt.   22 alpha a    0.22191 X
     Occ.   21 alpha a   ---  Virt.   28 alpha a    0.30113 X
     Occ.   21 alpha a   ---  Virt.   30 alpha a   -0.42798 X
     Occ.   21 alpha a   ---  Virt.   31 alpha a    0.08032 X
     Occ.   14 beta  a   ---  Virt.   21 beta  a   -0.08672 X
     Occ.   16 beta  a   ---  Virt.   21 beta  a    0.50149 X
     Occ.   19 beta  a   ---  Virt.   22 beta  a    0.22347 X
     Occ.   20 beta  a   ---  Virt.   24 beta  a    0.30735 X
     Occ.   20 beta  a   ---  Virt.   29 beta  a    0.34417 X
  ----------------------------------------------------------------------------
  Root  35         a              0.270809247 a.u.                7.3691 eV 
  <S2> =   2.7032
  ----------------------------------------------------------------------------
     Transition Moments    X -0.00001   Y -0.00001   Z -0.00956
     Transition Moments   XX  0.00001  XY -0.00001  XZ -0.00882
     Transition Moments   YY  0.00001  YZ -0.15344  ZZ -0.00000
     Dipole Oscillator Strength                    0.0000164910
     Electric Quadrupole                           0.0000000025
     Magnetic Dipole                               0.0000000000
     Total Oscillator Strength                     0.0000164935
 
     Occ.   20 alpha a   ---  Virt.   27 alpha a    0.79684 X
     Occ.   20 alpha a   ---  Virt.   38 alpha a   -0.08790 X
     Occ.   19 beta  a   ---  Virt.   27 beta  a   -0.57615 X
     Occ.   19 beta  a   ---  Virt.   38 beta  a    0.06815 X
     Occ.   20 beta  a   ---  Virt.   28 beta  a   -0.05389 X
     Occ.   20 beta  a   ---  Virt.   30 beta  a   -0.06114 X
  ----------------------------------------------------------------------------
  Root  36         a              0.271254034 a.u.                7.3812 eV 
  <S2> =   2.7408
  ----------------------------------------------------------------------------
     Transition Moments    X -0.04846   Y -0.00611   Z  0.00000
     Transition Moments   XX  0.00164  XY  0.02912  XZ -0.00001
     Transition Moments   YY -0.00003  YZ  0.00004  ZZ  0.00152
     Dipole Oscillator Strength                    0.0004314147
     Electric Quadrupole                           0.0000000001
     Magnetic Dipole                               0.0000000018
     Total Oscillator Strength                     0.0004314166
 
     Occ.   17 alpha a   ---  Virt.   22 alpha a   -0.59782 X
     Occ.   17 alpha a   ---  Virt.   41 alpha a    0.05240 X
     Occ.   19 alpha a   ---  Virt.   32 alpha a    0.08359 X
     Occ.   20 alpha a   ---  Virt.   29 alpha a   -0.16384 X
     Occ.   20 alpha a   ---  Virt.   44 alpha a    0.22678 X
     Occ.   20 alpha a   ---  Virt.   47 alpha a   -0.17368 X
     Occ.   17 beta  a   ---  Virt.   22 beta  a    0.64456 X
     Occ.   17 beta  a   ---  Virt.   41 beta  a   -0.05433 X
     Occ.   19 beta  a   ---  Virt.   29 beta  a    0.10213 X
     Occ.   19 beta  a   ---  Virt.   44 beta  a   -0.20060 X
     Occ.   19 beta  a   ---  Virt.   47 beta  a    0.16660 X
     Occ.   20 beta  a   ---  Virt.   31 beta  a   -0.10178 X
  ----------------------------------------------------------------------------
  Root  37         a              0.271753893 a.u.                7.3948 eV 
  <S2> =   1.0516
  ----------------------------------------------------------------------------
     Transition Moments    X  0.03736   Y -0.51256   Z -0.00000
     Transition Moments   XX  1.05205  XY  0.11655  XZ -0.00000
     Transition Moments   YY -0.75513  YZ -0.00009  ZZ  0.23977
     Dipole Oscillator Strength                    0.0478493703
     Electric Quadrupole                           0.0000000890
     Magnetic Dipole                               0.0000000000
     Total Oscillator Strength                     0.0478494594
 
     Occ.   17 alpha a   ---  Virt.   23 alpha a   -0.06255 X
     Occ.   19 alpha a   ---  Virt.   23 alpha a    0.09091 X
     Occ.   21 alpha a   ---  Virt.   30 alpha a    0.79730 X
     Occ.   21 alpha a   ---  Virt.   31 alpha a   -0.20552 X
     Occ.   21 alpha a   ---  Virt.   35 alpha a    0.07439 X
     Occ.   21 alpha a   ---  Virt.   40 alpha a   -0.05669 X
     Occ.   14 beta  a   ---  Virt.   21 beta  a   -0.06240 X
     Occ.   16 beta  a   ---  Virt.   21 beta  a    0.18879 X
     Occ.   19 beta  a   ---  Virt.   22 beta  a    0.05858 X
     Occ.   20 beta  a   ---  Virt.   24 beta  a    0.09605 X
     Occ.   20 beta  a   ---  Virt.   29 beta  a    0.48463 X
  ----------------------------------------------------------------------------
  Root  38         a              0.271807357 a.u.                7.3963 eV 
  <S2> =   0.8348
  ----------------------------------------------------------------------------
     Transition Moments    X  0.00002   Y -0.00010   Z  0.02480
     Transition Moments   XX  0.00020  XY  0.00008  XZ -0.02146
     Transition Moments   YY -0.00021  YZ  0.87266  ZZ  0.00006
     Dipole Oscillator Strength                    0.0001114329
     Electric Quadrupole                           0.0000000815
     Magnetic Dipole                               0.0000000038
     Total Oscillator Strength                     0.0001115182
 
     Occ.   20 alpha a   ---  Virt.   27 alpha a   -0.57369 X
     Occ.   19 beta  a   ---  Virt.   27 beta  a   -0.80045 X
     Occ.   19 beta  a   ---  Virt.   38 beta  a    0.07514 X
     Occ.   20 beta  a   ---  Virt.   28 beta  a    0.12787 X
  ----------------------------------------------------------------------------
  Root  39         a              0.272289090 a.u.                7.4094 eV 
  <S2> =   1.7224
  ----------------------------------------------------------------------------
     Transition Moments    X  0.00000   Y -0.00000   Z -0.00226
     Transition Moments   XX -0.00007  XY  0.00002  XZ  0.55161
     Transition Moments   YY  0.00000  YZ -0.02738  ZZ -0.00003
     Dipole Oscillator Strength                    0.0000009231
     Electric Quadrupole                           0.0000000328
     Magnetic Dipole                               0.0000000013
     Total Oscillator Strength                     0.0000009572
 
     Occ.   19 alpha a   ---  Virt.   27 alpha a    0.98949 X
     Occ.   19 alpha a   ---  Virt.   38 alpha a   -0.09585 X
  ----------------------------------------------------------------------------
  Root  40         a              0.272509798 a.u.                7.4154 eV 
  <S2> =   1.9617
  ----------------------------------------------------------------------------
     Transition Moments    X -0.00001   Y  0.00003   Z  0.04147
     Transition Moments   XX  0.00003  XY  0.00002  XZ -0.02429
     Transition Moments   YY  0.00005  YZ  0.43993  ZZ  0.00001
     Dipole Oscillator Strength                    0.0003123594
     Electric Quadrupole                           0.0000000209
     Magnetic Dipole                               0.0000000053
     Total Oscillator Strength                     0.0003123856
 
     Occ.   19 alpha a   ---  Virt.   28 alpha a   -0.11662 X
     Occ.   20 alpha a   ---  Virt.   27 alpha a    0.12607 X
     Occ.   17 beta  a   ---  Virt.   21 beta  a   -0.05506 X
     Occ.   19 beta  a   ---  Virt.   27 beta  a    0.06784 X
     Occ.   20 beta  a   ---  Virt.   28 beta  a    0.96943 X
     Occ.   20 beta  a   ---  Virt.   30 beta  a    0.05586 X
     Occ.   20 beta  a   ---  Virt.   32 beta  a    0.07460 X
     Occ.   20 beta  a   ---  Virt.   43 beta  a    0.08098 X
 
              Target root =      1
          Target symmetry = none
      Ground state energy =   -231.646321100685
        Excitation energy =      0.106296018749
     Excited state energy =   -231.540025081936
 
  stored tddft:energy   -231.540025081936     

 Task  times  cpu:     3023.4s     wall:     3115.7s
 
 
                                NWChem Input Module
                                -------------------
 
 
 Summary of allocated global arrays
-----------------------------------
  No active global arrays



                         GA Statistics for process    0
                         ------------------------------

       create   destroy   get      put      acc     scatter   gather  read&inc
calls: 9601     9601     9.50e+06 4.29e+06 1.85e+06 5660        0      292     
number of processes/call 1.34e+00 1.71e+00 1.89e+00 0.00e+00 0.00e+00
bytes total:             8.22e+10 1.17e+10 9.10e+10 6.26e+04 0.00e+00 2.34e+03
bytes remote:            5.90e+10 1.11e+09 8.69e+10 0.00e+00 0.00e+00 0.00e+00
Max memory consumed for GA by this process: 205086464 bytes
 
MA_summarize_allocated_blocks: starting scan ...
MA_summarize_allocated_blocks: scan completed: 0 heap blocks, 0 stack blocks
MA usage statistics:

	allocation statistics:
					      heap	     stack
					      ----	     -----
	current number of blocks	         0	         0
	maximum number of blocks	        20	        52
	current total bytes		         0	         0
	maximum total bytes		   1165984	  68276424
	maximum total K-bytes		      1166	     68277
	maximum total M-bytes		         2	        69
 
 
                                     CITATION
                                     --------
                Please cite the following reference when publishing
                           results obtained with NWChem:
 
                 M. Valiev, E.J. Bylaska, N. Govind, K. Kowalski,
              T.P. Straatsma, H.J.J. van Dam, D. Wang, J. Nieplocha,
                        E. Apra, T.L. Windus, W.A. de Jong
                 "NWChem: a comprehensive and scalable open-source
                  solution for large scale molecular simulations"
                      Comput. Phys. Commun. 181, 1477 (2010)
                           doi:10.1016/j.cpc.2010.04.018
 
                                      AUTHORS
                                      -------
          E. Apra, E. J. Bylaska, W. A. de Jong, N. Govind, K. Kowalski,
       T. P. Straatsma, M. Valiev, H. J. J. van Dam, D. Wang, T. L. Windus,
        J. Hammond, J. Autschbach, K. Bhaskaran-Nair, J. Brabec, K. Lopata,
    S. A. Fischer, S. Krishnamoorthy, M. Jacquelin, W. Ma, M. Klemm, O. Villa,
      Y. Chen, V. Anisimov, F. Aquino, S. Hirata, M. T. Hackler, V. Konjkov,
            D. Mejia-Rodriguez, T. Risthaus, M. Malagoli, A. Marenich,
   A. Otero-de-la-Roza, J. Mullin, P. Nichols, R. Peverati, J. Pittner, Y. Zhao,
        P.-D. Fan, A. Fonari, M. J. Williamson, R. J. Harrison, J. R. Rehr,
      M. Dupuis, D. Silverstein, D. M. A. Smith, J. Nieplocha, V. Tipparaju,
    M. Krishnan, B. E. Van Kuiken, A. Vazquez-Mayagoitia, L. Jensen, M. Swart,
      Q. Wu, T. Van Voorhis, A. A. Auer, M. Nooijen, L. D. Crosby, E. Brown,
      G. Cisneros, G. I. Fann, H. Fruchtl, J. Garza, K. Hirao, R. A. Kendall,
      J. A. Nichols, K. Tsemekhman, K. Wolinski, J. Anchell, D. E. Bernholdt,
      P. Borowski, T. Clark, D. Clerc, H. Dachsel, M. J. O. Deegan, K. Dyall,
    D. Elwood, E. Glendening, M. Gutowski, A. C. Hess, J. Jaffe, B. G. Johnson,
     J. Ju, R. Kobayashi, R. Kutteh, Z. Lin, R. Littlefield, X. Long, B. Meng,
      T. Nakajima, S. Niu, L. Pollack, M. Rosing, K. Glaesemann, G. Sandrone,
      M. Stave, H. Taylor, G. Thomas, J. H. van Lenthe, A. T. Wong, Z. Zhang.

 Total times  cpu:     3023.4s     wall:     3116.5s
