 argument  1 = /storage/home/j/jbb5516/normalModes/mode598.92-p.nw
 


============================== echo of input deck ==============================
echo
start

title "None"

geometry
C    -0.08666039    1.38835547    0.00000005
C    -1.26603885    0.68996364   -0.00000002
C    -1.16853838   -0.70601349   -0.00000002
C     0.08207797   -1.31604215    0.00000004
C     1.24519975   -0.55147389   -0.00000001
C     1.17174616    0.84604056    0.00000005
H    -2.23010266    1.18072031   -0.00000010
H    -2.06917570   -1.30658094   -0.00000009
H     0.15211646   -2.39529933   -0.00000000
H     2.21331499   -1.03588094   -0.00000013
H     2.06777056    1.45210090   -0.00000010
symmetry c1
end

basis spherical
 * library "aug-cc-pvtz"
end

dft
 direct
 mult 2
 iterations 500
 xc b3lyp
end

tddft
 nroots 40
 notriplet
 algorithm 1
end
task tddft energy
================================================================================


                                         
                                         
 
 
              Northwest Computational Chemistry Package (NWChem) 6.8
              ------------------------------------------------------
 
 
                    Environmental Molecular Sciences Laboratory
                       Pacific Northwest National Laboratory
                                Richland, WA 99352
 
                              Copyright (c) 1994-2017
                       Pacific Northwest National Laboratory
                            Battelle Memorial Institute
 
             NWChem is an open-source computational chemistry package
                        distributed under the terms of the
                      Educational Community License (ECL) 2.0
             A copy of the license is included with this distribution
                              in the LICENSE.TXT file
 
                                  ACKNOWLEDGMENT
                                  --------------

            This software and its documentation were developed at the
            EMSL at Pacific Northwest National Laboratory, a multiprogram
            national laboratory, operated for the U.S. Department of Energy
            by Battelle under Contract Number DE-AC05-76RL01830. Support
            for this work was provided by the Department of Energy Office
            of Biological and Environmental Research, Office of Basic
            Energy Sciences, and the Office of Advanced Scientific Computing.


           Job information
           ---------------

    hostname        = comp-sc-0162.acib.production.int.aci.ics.psu.edu
    program         = /gpfs/group/lxj18/default/jeffprograms/nwchem-6.8.1/bin/LINUX64/nwchem
    date            = Sun Sep 20 18:46:28 2020

    compiled        = Wed_Oct_03_14:08:39_2018
    source          = /gpfs/group/lxj18/default/jeffprograms/nwchem-6.8.1
    nwchem branch   = 6.8.1
    nwchem revision = v6.8-143-gdb0d964
    ga revision     = 5.6.5
    use scalapack   = F
    input           = /storage/home/j/jbb5516/normalModes/mode598.92-p.nw
    prefix          = mode598.92-p.
    data base       = ./mode598.92-p.db
    status          = startup
    nproc           =       20
    time left       =     -1s



           Memory information
           ------------------

    heap     =   13107198 doubles =    100.0 Mbytes
    stack    =   13107195 doubles =    100.0 Mbytes
    global   =   26214400 doubles =    200.0 Mbytes (distinct from heap & stack)
    total    =   52428793 doubles =    400.0 Mbytes
    verify   = yes
    hardfail = no 


           Directory information
           ---------------------
 
  0 permanent = .
  0 scratch   = .
 
 
 
 
                                NWChem Input Module
                                -------------------
 
 
                                       None
                                       ----

 Scaling coordinates for geometry "geometry" by  1.889725989
 (inverse scale =  0.529177249)

 Turning off AUTOSYM since
 SYMMETRY directive was detected!
 

          ------
          auto-z
          ------
 
 
                             Geometry "geometry" -> ""
                             -------------------------
 
 Output coordinates in angstroms (scale by  1.889725989 to convert to a.u.)
 
  No.       Tag          Charge          X              Y              Z
 ---- ---------------- ---------- -------------- -------------- --------------
    1 C                    6.0000    -0.08667603     1.38835447     0.00000005
    2 C                    6.0000    -1.26605449     0.68996264    -0.00000002
    3 C                    6.0000    -1.16855402    -0.70601449    -0.00000002
    4 C                    6.0000     0.08206233    -1.31604315     0.00000004
    5 C                    6.0000     1.24518411    -0.55147489    -0.00000001
    6 C                    6.0000     1.17173052     0.84603956     0.00000005
    7 H                    1.0000    -2.23011830     1.18071931    -0.00000010
    8 H                    1.0000    -2.06919134    -1.30658194    -0.00000009
    9 H                    1.0000     0.15210082    -2.39530033    -0.00000000
   10 H                    1.0000     2.21329935    -1.03588194    -0.00000013
   11 H                    1.0000     2.06775492     1.45209990    -0.00000010
 
      Atomic Mass 
      ----------- 
 
      C                 12.000000
      H                  1.007825
 

 Effective nuclear repulsion energy (a.u.)     195.0639607764

            Nuclear Dipole moment (a.u.) 
            ----------------------------
        X                 Y               Z
 ---------------- ---------------- ----------------
    -0.0000000000    -0.0000000000     0.0000000000
 


                                Z-matrix (autoz)
                                -------- 

 Units are Angstrom for bonds and degrees for angles
 
      Type          Name      I     J     K     L     M      Value
      ----------- --------  ----- ----- ----- ----- ----- ----------
    1 Stretch                  1     2                       1.37065
    2 Stretch                  1     6                       1.37029
    3 Stretch                  2     3                       1.39938
    4 Stretch                  2     7                       1.08179
    5 Stretch                  3     4                       1.39147
    6 Stretch                  3     8                       1.08251
    7 Stretch                  4     5                       1.39191
    8 Stretch                  4     9                       1.08153
    9 Stretch                  5     6                       1.39944
   10 Stretch                  5    10                       1.08254
   11 Stretch                  6    11                       1.08174
   12 Bend                     1     2     3               116.63745
   13 Bend                     1     2     7               122.38891
   14 Bend                     1     6     5               116.32251
   15 Bend                     1     6    11               122.61224
   16 Bend                     2     1     6               126.05348
   17 Bend                     2     3     4               119.99758
   18 Bend                     2     3     8               119.70107
   19 Bend                     3     2     7               120.97364
   20 Bend                     3     4     5               120.67911
   21 Bend                     3     4     9               119.71531
   22 Bend                     4     3     8               120.30135
   23 Bend                     4     5     6               120.30987
   24 Bend                     4     5    10               120.09983
   25 Bend                     5     4     9               119.60557
   26 Bend                     5     6    11               121.06525
   27 Bend                     6     5    10               119.59030
   28 Torsion                  1     2     3     4           0.00000
   29 Torsion                  1     2     3     8        -180.00000
   30 Torsion                  1     6     5     4           0.00000
   31 Torsion                  1     6     5    10         180.00000
   32 Torsion                  2     1     6     5           0.00000
   33 Torsion                  2     1     6    11         180.00000
   34 Torsion                  2     3     4     5           0.00000
   35 Torsion                  2     3     4     9        -180.00000
   36 Torsion                  3     2     1     6           0.00000
   37 Torsion                  3     4     5     6           0.00000
   38 Torsion                  3     4     5    10        -180.00000
   39 Torsion                  4     3     2     7         180.00000
   40 Torsion                  4     5     6    11        -180.00000
   41 Torsion                  5     4     3     8         180.00000
   42 Torsion                  6     1     2     7        -180.00000
   43 Torsion                  6     5     4     9        -180.00000
   44 Torsion                  7     2     3     8           0.00000
   45 Torsion                  8     3     4     9           0.00000
   46 Torsion                  9     4     5    10           0.00000
   47 Torsion                 10     5     6    11           0.00000
 
 
            XYZ format geometry
            -------------------
    11
 geometry
 C                    -0.08667603     1.38835447     0.00000005
 C                    -1.26605449     0.68996264    -0.00000002
 C                    -1.16855402    -0.70601449    -0.00000002
 C                     0.08206233    -1.31604315     0.00000004
 C                     1.24518411    -0.55147489    -0.00000001
 C                     1.17173052     0.84603956     0.00000005
 H                    -2.23011830     1.18071931    -0.00000010
 H                    -2.06919134    -1.30658194    -0.00000009
 H                     0.15210082    -2.39530033    -0.00000000
 H                     2.21329935    -1.03588194    -0.00000013
 H                     2.06775492     1.45209990    -0.00000010
 
 ==============================================================================
                                internuclear distances
 ------------------------------------------------------------------------------
       center one      |      center two      | atomic units |  angstroms
 ------------------------------------------------------------------------------
    2 C                |   1 C                |     2.59016  |     1.37065
    3 C                |   2 C                |     2.64444  |     1.39938
    4 C                |   3 C                |     2.62949  |     1.39147
    5 C                |   4 C                |     2.63033  |     1.39191
    6 C                |   1 C                |     2.58947  |     1.37029
    6 C                |   5 C                |     2.64456  |     1.39944
    7 H                |   2 C                |     2.04428  |     1.08179
    8 H                |   3 C                |     2.04565  |     1.08251
    9 H                |   4 C                |     2.04379  |     1.08153
   10 H                |   5 C                |     2.04571  |     1.08254
   11 H                |   6 C                |     2.04420  |     1.08174
 ------------------------------------------------------------------------------
                         number of included internuclear distances:         11
 ==============================================================================



 ==============================================================================
                                 internuclear angles
 ------------------------------------------------------------------------------
        center 1       |       center 2       |       center 3       |  degrees
 ------------------------------------------------------------------------------
    2 C                |   1 C                |   6 C                |   126.05
    1 C                |   2 C                |   3 C                |   116.64
    1 C                |   2 C                |   7 H                |   122.39
    3 C                |   2 C                |   7 H                |   120.97
    2 C                |   3 C                |   4 C                |   120.00
    2 C                |   3 C                |   8 H                |   119.70
    4 C                |   3 C                |   8 H                |   120.30
    3 C                |   4 C                |   5 C                |   120.68
    3 C                |   4 C                |   9 H                |   119.72
    5 C                |   4 C                |   9 H                |   119.61
    4 C                |   5 C                |   6 C                |   120.31
    4 C                |   5 C                |  10 H                |   120.10
    6 C                |   5 C                |  10 H                |   119.59
    1 C                |   6 C                |   5 C                |   116.32
    1 C                |   6 C                |  11 H                |   122.61
    5 C                |   6 C                |  11 H                |   121.07
 ------------------------------------------------------------------------------
                            number of included internuclear angles:         16
 ==============================================================================





 Summary of "ao basis" -> "" (spherical)
 ------------------------------------------------------------------------------
       Tag                 Description            Shells   Functions and Types
 ---------------- ------------------------------  ------  ---------------------
 *                        aug-cc-pvtz                 on all atoms 


 
                                 NWChem DFT Module
                                 -----------------
 
 
                                       None
 
 
                      Basis "ao basis" -> "ao basis" (spherical)
                      -----
  C (Carbon)
  ----------
            Exponent  Coefficients 
       -------------- ---------------------------------------------------------
  1 S  8.23600000E+03  0.000531
  1 S  1.23500000E+03  0.004108
  1 S  2.80800000E+02  0.021087
  1 S  7.92700000E+01  0.081853
  1 S  2.55900000E+01  0.234817
  1 S  8.99700000E+00  0.434401
  1 S  3.31900000E+00  0.346129
  1 S  3.64300000E-01 -0.008983
 
  2 S  8.23600000E+03 -0.000113
  2 S  1.23500000E+03 -0.000878
  2 S  2.80800000E+02 -0.004540
  2 S  7.92700000E+01 -0.018133
  2 S  2.55900000E+01 -0.055760
  2 S  8.99700000E+00 -0.126895
  2 S  3.31900000E+00 -0.170352
  2 S  3.64300000E-01  0.598684
 
  3 S  9.05900000E-01  1.000000
 
  4 S  1.28500000E-01  1.000000
 
  5 S  4.40200000E-02  1.000000
 
  6 P  1.87100000E+01  0.014031
  6 P  4.13300000E+00  0.086866
  6 P  1.20000000E+00  0.290216
 
  7 P  3.82700000E-01  1.000000
 
  8 P  1.20900000E-01  1.000000
 
  9 P  3.56900000E-02  1.000000
 
 10 D  1.09700000E+00  1.000000
 
 11 D  3.18000000E-01  1.000000
 
 12 D  1.00000000E-01  1.000000
 
 13 F  7.61000000E-01  1.000000
 
 14 F  2.68000000E-01  1.000000
 
  H (Hydrogen)
  ------------
            Exponent  Coefficients 
       -------------- ---------------------------------------------------------
  1 S  3.38700000E+01  0.006068
  1 S  5.09500000E+00  0.045308
  1 S  1.15900000E+00  0.202822
 
  2 S  3.25800000E-01  1.000000
 
  3 S  1.02700000E-01  1.000000
 
  4 S  2.52600000E-02  1.000000
 
  5 P  1.40700000E+00  1.000000
 
  6 P  3.88000000E-01  1.000000
 
  7 P  1.02000000E-01  1.000000
 
  8 D  1.05700000E+00  1.000000
 
  9 D  2.47000000E-01  1.000000
 


 Summary of "ao basis" -> "ao basis" (spherical)
 ------------------------------------------------------------------------------
       Tag                 Description            Shells   Functions and Types
 ---------------- ------------------------------  ------  ---------------------
 C                        aug-cc-pvtz               14       46   5s4p3d2f
 H                        aug-cc-pvtz                9       23   4s3p2d




 Summary of "ao basis" -> "ao basis" (spherical)
 ------------------------------------------------------------------------------
       Tag                 Description            Shells   Functions and Types
 ---------------- ------------------------------  ------  ---------------------
 C                        aug-cc-pvtz               14       46   5s4p3d2f
 H                        aug-cc-pvtz                9       23   4s3p2d


  Caching 1-el integrals 
 
            General Information
            -------------------
          SCF calculation type: DFT
          Wavefunction type:  spin polarized.
          No. of atoms     :    11
          No. of electrons :    41
           Alpha electrons :    21
            Beta electrons :    20
          Charge           :     0
          Spin multiplicity:     2
          Use of symmetry is: off; symmetry adaption is: off
          Maximum number of iterations: 500
          This is a Direct SCF calculation.
          AO basis - number of functions:   391
                     number of shells:   129
          Convergence on energy requested:  1.00D-06
          Convergence on density requested:  1.00D-05
          Convergence on gradient requested:  5.00D-04
 
              XC Information
              --------------
                         B3LYP Method XC Potential
                     Hartree-Fock (Exact) Exchange  0.200          
                        Slater Exchange Functional  0.800 local    
                    Becke 1988 Exchange Functional  0.720 non-local
              Lee-Yang-Parr Correlation Functional  0.810          
                  VWN I RPA Correlation Functional  0.190 local    
 
             Grid Information
             ----------------
          Grid used for XC integration:  medium    
          Radial quadrature: Mura-Knowles        
          Angular quadrature: Lebedev. 
          Tag              B.-S. Rad. Rad. Pts. Rad. Cut. Ang. Pts.
          ---              ---------- --------- --------- ---------
          C                   0.70       49          15.0       434
          H                   0.35       45          17.0       434
          Grid pruning is: on 
          Number of quadrature shells:   519
          Spatial weights used:  Erf1
 
          Convergence Information
          -----------------------
          Convergence aids based upon iterative change in 
          total energy or number of iterations. 
          Levelshifting, if invoked, occurs when the 
          HOMO/LUMO gap drops below (HL_TOL):  1.00D-02
          DIIS, if invoked, will attempt to extrapolate 
          using up to (NFOCK): 10 stored Fock matrices.

                    Damping( 0%)  Levelshifting(0.5)       DIIS
                  --------------- ------------------- ---------------
          dE  on:    start            ASAP                start   
          dE off:    2 iters        500 iters           500 iters 

 
      Screening Tolerance Information
      -------------------------------
          Density screening/tol_rho:  1.00D-10
          AO Gaussian exp screening on grid/accAOfunc:  14
          CD Gaussian exp screening on grid/accCDfunc:  20
          XC Gaussian exp screening on grid/accXCfunc:  20
          Schwarz screening/accCoul:  1.00D-08

 
 WARNING : Found     7 linear dependencies 
 S eigenvalue threshold:     1.00000E-05
 Smallest S eigenvalue :     1.46348E-06
 Largest  S eigenvalue :     7.76560E-06
 

 !! The overlap matrix has   7 vectors deemed linearly dependent with
    eigenvalues:
 1.46D-06 2.24D-06 2.83D-06 3.54D-06 5.28D-06 5.95D-06 7.77D-06
 
 
      Superposition of Atomic Density Guess
      -------------------------------------
 
 Sum of atomic energies:        -228.52307259
 
      Non-variational initial energy
      ------------------------------

 Total energy =    -232.667203
 1-e energy   =    -691.328443
 2-e energy   =     263.597280
 HOMO         =      -0.183325
 LUMO         =      -0.022269
 
   Time after variat. SCF:      9.0
   Time prior to 1st pass:      9.0

 Grid_pts file          = ./mode598.92-p.gridpts.00
 Record size in doubles =  12289        No. of grid_pts per rec  =   3070
 Max. records in memory =      6        Max. recs in file   = 219439334

 Grid integrated density:      40.999768657234
 Requested integration accuracy:   0.10E-05

           Memory utilization after 1st SCF pass: 
           Heap Space remaining (MW):       12.96            12961278
          Stack Space remaining (MW):       13.10            13103676

   convergence    iter        energy       DeltaE   RMS-Dens  Diis-err    time
 ---------------- ----- ----------------- --------- --------- ---------  ------
 d= 0,ls=0.0,diis     1   -231.5817645228 -4.27D+02  6.24D-02  2.09D-01    19.7
                                                     7.05D-02  1.96D-01
 d= 0,ls=0.0,diis     2   -231.6398139207 -5.80D-02  6.15D-02  1.22D-02    30.3
                                                     6.93D-02  1.25D-02
 d= 0,ls=0.0,diis     3   -231.6446081071 -4.79D-03  1.28D-03  3.44D-03    40.9
                                                     1.39D-03  3.50D-03
 d= 0,ls=0.0,diis     4   -231.6457623899 -1.15D-03  2.04D-04  1.13D-03    51.6
                                                     2.08D-04  1.07D-03
 d= 0,ls=0.0,diis     5   -231.6462829778 -5.21D-04  3.39D-05  4.27D-05    62.2
                                                     3.13D-05  4.87D-05
  Resetting Diis
 d= 0,ls=0.0,diis     6   -231.6463108804 -2.79D-05  1.10D-05  8.00D-06    72.9
                                                     1.06D-05  6.49D-06
 d= 0,ls=0.0,diis     7   -231.6463171302 -6.25D-06  7.38D-06  2.19D-06    83.6
                                                     6.59D-06  2.44D-06
 d= 0,ls=0.0,diis     8   -231.6463181038 -9.74D-07  3.08D-06  5.74D-06    94.2
                                                     2.75D-06  5.10D-06


         Total DFT energy =     -231.646318103760
      One electron energy =     -696.565289650806
           Coulomb energy =      304.264427713819
    Exchange-Corr. energy =      -34.409416943152
 Nuclear repulsion energy =      195.063960776379

 Numeric. integr. density =       40.999986105152

     Total iterative time =     85.3s


 
                    DFT Final Alpha Molecular Orbital Analysis
                    ------------------------------------------
 
 Vector    1  Occ=1.000000D+00  E=-1.020518D+01
              MO Center= -8.7D-02,  1.4D+00,  4.8D-08, r^2= 3.0D-02
   Bfn.  Coefficient  Atom+Function         Bfn.  Coefficient  Atom+Function  
  ----- ------------  ---------------      ----- ------------  ---------------
     1      0.984155   1 C  s                 3      0.058847   1 C  s         
    50     -0.038572   2 C  s               234     -0.038205   6 C  s         
   143      0.037891   4 C  s               279      0.037871   7 H  s         
   371      0.038041  11 H  s               235     -0.031172   6 C  s         
    51     -0.030187   2 C  s               231      0.025688   6 C  s         
 
 Vector    2  Occ=1.000000D+00  E=-1.019190D+01
              MO Center= -1.1D+00, -6.5D-01, -2.4D-08, r^2= 1.6D-01
   Bfn.  Coefficient  Atom+Function         Bfn.  Coefficient  Atom+Function  
  ----- ------------  ---------------      ----- ------------  ---------------
    93      0.961766   3 C  s                47      0.193744   2 C  s         
   185      0.093680   5 C  s               142     -0.076390   4 C  s         
   302      0.058351   8 H  s                95      0.057382   3 C  s         
   234      0.052120   6 C  s               139      0.046344   4 C  s         
   371     -0.041604  11 H  s               235      0.040318   6 C  s         
 
 Vector    3  Occ=1.000000D+00  E=-1.019180D+01
              MO Center=  1.2D+00, -4.8D-01, -1.2D-08, r^2= 1.9D-01
   Bfn.  Coefficient  Atom+Function         Bfn.  Coefficient  Atom+Function  
  ----- ------------  ---------------      ----- ------------  ---------------
   185      0.954387   5 C  s               231      0.228502   6 C  s         
    93     -0.089247   3 C  s               142     -0.063090   4 C  s         
   348      0.060819  10 H  s               187      0.056991   5 C  s         
    50      0.056297   2 C  s               279     -0.046744   7 H  s         
    51      0.045790   2 C  s               189     -0.038739   5 C  s         
 
 Vector    4  Occ=1.000000D+00  E=-1.019048D+01
              MO Center=  1.2D+00,  7.7D-01,  4.5D-08, r^2= 1.4D-01
   Bfn.  Coefficient  Atom+Function         Bfn.  Coefficient  Atom+Function  
  ----- ------------  ---------------      ----- ------------  ---------------
   231      0.958335   6 C  s               185     -0.224454   5 C  s         
   371      0.058350  11 H  s               233      0.055740   6 C  s         
    97      0.038624   3 C  s                47      0.036735   2 C  s         
    96      0.034568   3 C  s               143      0.033217   4 C  s         
     4     -0.030327   1 C  s                12     -0.030013   1 C  px        
 
 Vector    5  Occ=1.000000D+00  E=-1.019037D+01
              MO Center= -1.3D+00,  6.4D-01, -2.3D-08, r^2= 1.1D-01
   Bfn.  Coefficient  Atom+Function         Bfn.  Coefficient  Atom+Function  
  ----- ------------  ---------------      ----- ------------  ---------------
    47      0.965092   2 C  s                93     -0.193560   3 C  s         
   279      0.058789   7 H  s                49      0.056174   2 C  s         
   189      0.040577   5 C  s               188      0.036021   5 C  s         
    97     -0.032663   3 C  s                12      0.031830   1 C  px        
    96     -0.031688   3 C  s                51     -0.030798   2 C  s         
 
 Vector    6  Occ=1.000000D+00  E=-1.018449D+01
              MO Center=  8.2D-02, -1.3D+00,  3.9D-08, r^2= 3.5D-02
   Bfn.  Coefficient  Atom+Function         Bfn.  Coefficient  Atom+Function  
  ----- ------------  ---------------      ----- ------------  ---------------
   139      0.984215   4 C  s               141      0.057789   4 C  s         
   188     -0.046132   5 C  s               325      0.045949   9 H  s         
    96     -0.045659   3 C  s               143     -0.043458   4 C  s         
   185     -0.040683   5 C  s                 4      0.040412   1 C  s         
    93     -0.040214   3 C  s               151      0.036010   4 C  py        
 
 Vector    7  Occ=1.000000D+00  E=-8.725032D-01
              MO Center= -5.8D-03,  9.9D-02,  5.0D-09, r^2= 2.0D+00
   Bfn.  Coefficient  Atom+Function         Bfn.  Coefficient  Atom+Function  
  ----- ------------  ---------------      ----- ------------  ---------------
     2      0.213891   1 C  s                48      0.202695   2 C  s         
   232      0.202757   6 C  s                94      0.195470   3 C  s         
   186      0.195639   5 C  s               140      0.188341   4 C  s         
   234      0.090666   6 C  s                50      0.089664   2 C  s         
    96      0.088507   3 C  s               188      0.087767   5 C  s         
 
 Vector    8  Occ=1.000000D+00  E=-7.627920D-01
              MO Center= -6.7D-03,  1.0D-01,  1.5D-09, r^2= 2.8D+00
   Bfn.  Coefficient  Atom+Function         Bfn.  Coefficient  Atom+Function  
  ----- ------------  ---------------      ----- ------------  ---------------
   232     -0.254455   6 C  s                48      0.247473   2 C  s         
    94      0.247224   3 C  s               186     -0.239952   5 C  s         
   234     -0.149128   6 C  s                50      0.143245   2 C  s         
   371      0.130980  11 H  s               279     -0.127738   7 H  s         
   150     -0.115349   4 C  px              189     -0.111207   5 C  s         
 
 Vector    9  Occ=1.000000D+00  E=-7.537690D-01
              MO Center=  9.1D-03, -1.5D-01, -2.7D-08, r^2= 2.6D+00
   Bfn.  Coefficient  Atom+Function         Bfn.  Coefficient  Atom+Function  
  ----- ------------  ---------------      ----- ------------  ---------------
   140     -0.301039   4 C  s                 2      0.278221   1 C  s         
    48      0.154236   2 C  s               186     -0.154535   5 C  s         
   142     -0.147322   4 C  s                94     -0.142771   3 C  s         
   232      0.142057   6 C  s               188     -0.106041   5 C  s         
    96     -0.103596   3 C  s                 4      0.102917   1 C  s         
 
 Vector   10  Occ=1.000000D+00  E=-6.187747D-01
              MO Center= -4.4D-03,  3.8D-02, -1.0D-08, r^2= 3.6D+00
   Bfn.  Coefficient  Atom+Function         Bfn.  Coefficient  Atom+Function  
  ----- ------------  ---------------      ----- ------------  ---------------
    94     -0.209743   3 C  s               186      0.207570   5 C  s         
   232     -0.200160   6 C  s                48      0.198589   2 C  s         
   234     -0.184196   6 C  s                50      0.182551   2 C  s         
    96     -0.148150   3 C  s               188      0.145796   5 C  s         
     6     -0.127179   1 C  px              144      0.117013   4 C  px        
 
 Vector   11  Occ=1.000000D+00  E=-6.035753D-01
              MO Center=  7.8D-03, -8.6D-02, -3.1D-08, r^2= 3.5D+00
   Bfn.  Coefficient  Atom+Function         Bfn.  Coefficient  Atom+Function  
  ----- ------------  ---------------      ----- ------------  ---------------
   142      0.258344   4 C  s                 2      0.239054   1 C  s         
   140      0.218586   4 C  s                 4      0.198646   1 C  s         
   186     -0.139975   5 C  s                94     -0.136907   3 C  s         
    50     -0.123401   2 C  s               188     -0.121729   5 C  s         
   234     -0.122009   6 C  s                96     -0.116839   3 C  s         
 
 Vector   12  Occ=1.000000D+00  E=-5.277760D-01
              MO Center=  1.1D-02, -1.5D-01, -1.1D-08, r^2= 4.1D+00
   Bfn.  Coefficient  Atom+Function         Bfn.  Coefficient  Atom+Function  
  ----- ------------  ---------------      ----- ------------  ---------------
   148      0.159329   4 C  py              145      0.138880   4 C  py        
   324     -0.126840   9 H  s                55      0.105204   2 C  px        
   240     -0.104743   6 C  py              323     -0.100400   9 H  s         
   237     -0.096104   6 C  py              193     -0.094380   5 C  px        
   278     -0.094395   7 H  s               370     -0.094523  11 H  s         
 
 Vector   13  Occ=1.000000D+00  E=-4.645723D-01
              MO Center=  4.2D-03,  1.0D-01,  1.2D-09, r^2= 2.7D+00
   Bfn.  Coefficient  Atom+Function         Bfn.  Coefficient  Atom+Function  
  ----- ------------  ---------------      ----- ------------  ---------------
     9      0.188779   1 C  px                6      0.175218   1 C  px        
   147      0.172395   4 C  px              144      0.159090   4 C  px        
   239     -0.140114   6 C  px              194     -0.136622   5 C  py        
    56     -0.131249   2 C  py              236     -0.125065   6 C  px        
   101     -0.123959   3 C  px              191     -0.123108   5 C  py        
 
 Vector   14  Occ=1.000000D+00  E=-4.631836D-01
              MO Center= -7.2D-03, -1.6D-01, -4.4D-08, r^2= 4.8D+00
   Bfn.  Coefficient  Atom+Function         Bfn.  Coefficient  Atom+Function  
  ----- ------------  ---------------      ----- ------------  ---------------
     2      0.176412   1 C  s               301      0.138001   8 H  s         
   347      0.135351  10 H  s               140     -0.129260   4 C  s         
   193      0.129389   5 C  px              196      0.120847   5 C  px        
   190      0.120015   5 C  px               96      0.118740   3 C  s         
   101     -0.116123   3 C  px              104     -0.116321   3 C  px        
 
 Vector   15  Occ=1.000000D+00  E=-4.400112D-01
              MO Center= -4.4D-03,  2.1D-01, -2.5D-08, r^2= 4.0D+00
   Bfn.  Coefficient  Atom+Function         Bfn.  Coefficient  Atom+Function  
  ----- ------------  ---------------      ----- ------------  ---------------
   240      0.144160   6 C  py              102      0.137329   3 C  py        
   237      0.133033   6 C  py              278     -0.132951   7 H  s         
    55      0.130978   2 C  px              370      0.129837  11 H  s         
    56     -0.128377   2 C  py               99      0.128496   3 C  py        
   194     -0.128374   5 C  py              191     -0.121250   5 C  py        
 
 Vector   16  Occ=1.000000D+00  E=-3.991005D-01
              MO Center=  4.4D-02, -7.8D-01, -9.4D-09, r^2= 3.3D+00
   Bfn.  Coefficient  Atom+Function         Bfn.  Coefficient  Atom+Function  
  ----- ------------  ---------------      ----- ------------  ---------------
   148      0.233584   4 C  py              145      0.209217   4 C  py        
   324     -0.198459   9 H  s               151      0.172801   4 C  py        
   323     -0.153997   9 H  s                10      0.138437   1 C  py        
    13      0.120851   1 C  py              240      0.114637   6 C  py        
    56      0.110201   2 C  py                7      0.107785   1 C  py        
 
 Vector   17  Occ=1.000000D+00  E=-3.837247D-01
              MO Center= -7.4D-03,  1.2D-01, -5.8D-08, r^2= 2.7D+00
   Bfn.  Coefficient  Atom+Function         Bfn.  Coefficient  Atom+Function  
  ----- ------------  ---------------      ----- ------------  ---------------
    11      0.173056   1 C  pz               57      0.156620   2 C  pz        
   241      0.156653   6 C  pz              103      0.152053   3 C  pz        
   195      0.152083   5 C  pz              149      0.146165   4 C  pz        
     8      0.136553   1 C  pz               54      0.125910   2 C  pz        
   238      0.125941   6 C  pz              100      0.121623   3 C  pz        
 
 Vector   18  Occ=1.000000D+00  E=-3.660230D-01
              MO Center=  9.9D-03, -1.4D-01, -2.8D-08, r^2= 4.1D+00
   Bfn.  Coefficient  Atom+Function         Bfn.  Coefficient  Atom+Function  
  ----- ------------  ---------------      ----- ------------  ---------------
   147     -0.169388   4 C  px              101      0.165148   3 C  px        
   193      0.165036   5 C  px              144     -0.159910   4 C  px        
     9      0.149250   1 C  px               98      0.149517   3 C  px        
   190      0.149071   5 C  px                6      0.141514   1 C  px        
   196      0.135718   5 C  px              104      0.133330   3 C  px        
 
 Vector   19  Occ=1.000000D+00  E=-2.685527D-01
              MO Center= -1.8D-02, -1.4D-02,  9.6D-08, r^2= 3.0D+00
   Bfn.  Coefficient  Atom+Function         Bfn.  Coefficient  Atom+Function  
  ----- ------------  ---------------      ----- ------------  ---------------
    11      0.237498   1 C  pz              149     -0.232134   4 C  pz        
     8      0.186829   1 C  pz              146     -0.185532   4 C  pz        
   103     -0.172174   3 C  pz               14      0.170637   1 C  pz        
   152     -0.167005   4 C  pz              241      0.160894   6 C  pz        
   100     -0.137519   3 C  pz              238      0.128424   6 C  pz        
 
 Vector   20  Occ=1.000000D+00  E=-2.678869D-01
              MO Center=  1.4D-02,  6.0D-02,  2.6D-07, r^2= 3.1D+00
   Bfn.  Coefficient  Atom+Function         Bfn.  Coefficient  Atom+Function  
  ----- ------------  ---------------      ----- ------------  ---------------
   195     -0.231234   5 C  pz               57      0.226054   2 C  pz        
   192     -0.184356   5 C  pz               54      0.180884   2 C  pz        
   103      0.170638   3 C  pz              241     -0.170676   6 C  pz        
   198     -0.166286   5 C  pz               60      0.164758   2 C  pz        
   238     -0.136725   6 C  pz              100      0.135900   3 C  pz        
 
 Vector   21  Occ=1.000000D+00  E=-2.483334D-01
              MO Center= -8.1D-02,  1.3D+00,  8.4D-08, r^2= 2.3D+00
   Bfn.  Coefficient  Atom+Function         Bfn.  Coefficient  Atom+Function  
  ----- ------------  ---------------      ----- ------------  ---------------
    10      0.385866   1 C  py               13      0.337675   1 C  py        
     5      0.335442   1 C  s                 7      0.299290   1 C  py        
     4      0.279449   1 C  s                 2      0.138448   1 C  s         
   243     -0.136361   6 C  py               59     -0.133904   2 C  py        
   102      0.112245   3 C  py              194      0.112339   5 C  py        
 
 Vector   22  Occ=0.000000D+00  E=-2.605940D-02
              MO Center= -3.9D-03,  6.5D-02, -1.1D-06, r^2= 4.3D+00
   Bfn.  Coefficient  Atom+Function         Bfn.  Coefficient  Atom+Function  
  ----- ------------  ---------------      ----- ------------  ---------------
   109     -0.322222   3 C  pz              201      0.318176   5 C  pz        
   247     -0.315898   6 C  pz               63      0.312218   2 C  pz        
   244     -0.227941   6 C  pz               60      0.225466   2 C  pz        
   106     -0.225292   3 C  pz              198      0.222628   5 C  pz        
   241     -0.219839   6 C  pz               57      0.217369   2 C  pz        
 
 Vector   23  Occ=0.000000D+00  E=-1.861790D-02
              MO Center=  3.0D-03, -4.7D-02, -4.2D-06, r^2= 4.3D+00
   Bfn.  Coefficient  Atom+Function         Bfn.  Coefficient  Atom+Function  
  ----- ------------  ---------------      ----- ------------  ---------------
   155      0.439241   4 C  pz               17      0.373833   1 C  pz        
   152      0.273704   4 C  pz               11      0.259146   1 C  pz        
   149      0.250608   4 C  pz               14      0.240757   1 C  pz        
   201     -0.229978   5 C  pz              109     -0.222901   3 C  pz        
     8      0.200850   1 C  pz               63     -0.201247   2 C  pz        
 
 Vector   24  Occ=0.000000D+00  E=-1.011876D-02
              MO Center=  6.1D-02, -9.6D-01, -2.3D-06, r^2= 2.0D+01
   Bfn.  Coefficient  Atom+Function         Bfn.  Coefficient  Atom+Function  
  ----- ------------  ---------------      ----- ------------  ---------------
     5      1.445374   1 C  s               279     -0.974310   7 H  s         
   371     -0.978294  11 H  s               326     -0.742139   9 H  s         
   303     -0.731920   8 H  s               349     -0.728728  10 H  s         
   302     -0.653929   8 H  s               348     -0.646302  10 H  s         
   325     -0.588073   9 H  s                51      0.568648   2 C  s         
 
 Vector   25  Occ=0.000000D+00  E= 4.377702D-03
              MO Center=  2.0D-02, -2.6D-01, -9.0D-06, r^2= 2.7D+01
   Bfn.  Coefficient  Atom+Function         Bfn.  Coefficient  Atom+Function  
  ----- ------------  ---------------      ----- ------------  ---------------
   235     -2.744796   6 C  s                51      2.717343   2 C  s         
    97      2.670518   3 C  s               189     -2.674477   5 C  s         
   303      1.999929   8 H  s               349     -1.994101  10 H  s         
    15      1.866844   1 C  px              153      1.806691   4 C  px        
   372     -1.547286  11 H  s               280      1.531422   7 H  s         
 
 Vector   26  Occ=0.000000D+00  E= 8.724709D-03
              MO Center=  8.9D-04, -7.3D-02,  5.5D-05, r^2= 2.7D+01
   Bfn.  Coefficient  Atom+Function         Bfn.  Coefficient  Atom+Function  
  ----- ------------  ---------------      ----- ------------  ---------------
   143      6.244485   4 C  s                51     -4.023024   2 C  s         
   235     -3.994610   6 C  s               326      2.932679   9 H  s         
     5      2.588444   1 C  s               280     -2.394901   7 H  s         
   372     -2.381191  11 H  s               154      1.945734   4 C  py        
   246      1.915769   6 C  py               62      1.848934   2 C  py        
 
 Vector   27  Occ=0.000000D+00  E= 2.670352D-02
              MO Center= -1.8D-02,  2.4D-01, -2.4D-05, r^2= 3.1D+01
   Bfn.  Coefficient  Atom+Function         Bfn.  Coefficient  Atom+Function  
  ----- ------------  ---------------      ----- ------------  ---------------
   280      3.933784   7 H  s               372     -3.930609  11 H  s         
    51      3.675143   2 C  s               235     -3.640909   6 C  s         
   303     -3.601235   8 H  s               349      3.601692  10 H  s         
    61      2.219471   2 C  px               97     -2.192856   3 C  s         
   189      2.187545   5 C  s               199     -2.042318   5 C  px        
 
 Vector   28  Occ=0.000000D+00  E= 3.221395D-02
              MO Center=  4.2D-02, -6.2D-01, -1.2D-04, r^2= 2.9D+01
   Bfn.  Coefficient  Atom+Function         Bfn.  Coefficient  Atom+Function  
  ----- ------------  ---------------      ----- ------------  ---------------
     5      6.395365   1 C  s               326     -4.997052   9 H  s         
   303      3.719145   8 H  s               349      3.733588  10 H  s         
    97     -2.180553   3 C  s               154     -2.175975   4 C  py        
   189     -2.176710   5 C  s               199     -1.656984   5 C  px        
   245      1.639891   6 C  px               61     -1.575838   2 C  px        
 
 Vector   29  Occ=0.000000D+00  E= 4.329019D-02
              MO Center=  1.4D-02, -2.2D-01,  8.9D-06, r^2= 1.3D+01
   Bfn.  Coefficient  Atom+Function         Bfn.  Coefficient  Atom+Function  
  ----- ------------  ---------------      ----- ------------  ---------------
   155      0.599006   4 C  pz              247      0.579039   6 C  pz        
    63      0.572962   2 C  pz               17     -0.260370   1 C  pz        
   244     -0.155496   6 C  pz               60     -0.154673   2 C  pz        
   381     -0.125576  11 H  pz              289     -0.121519   7 H  pz        
   259      0.120361   6 C  d -1             77      0.107350   2 C  d  1      
 
 Vector   30  Occ=0.000000D+00  E= 5.495299D-02
              MO Center=  1.1D-02, -1.5D-01, -4.0D-05, r^2= 1.5D+01
   Bfn.  Coefficient  Atom+Function         Bfn.  Coefficient  Atom+Function  
  ----- ------------  ---------------      ----- ------------  ---------------
     5     10.699799   1 C  s               143      5.278826   4 C  s         
   235     -4.509905   6 C  s                51     -4.457431   2 C  s         
   303     -2.797367   8 H  s               349     -2.799720  10 H  s         
   326      2.056877   9 H  s               199      1.990243   5 C  px        
   189     -1.957330   5 C  s                97     -1.940550   3 C  s         
 
 Vector   31  Occ=0.000000D+00  E= 6.334927D-02
              MO Center= -3.9D-02,  6.5D-01, -1.0D-04, r^2= 2.8D+01
   Bfn.  Coefficient  Atom+Function         Bfn.  Coefficient  Atom+Function  
  ----- ------------  ---------------      ----- ------------  ---------------
     5     24.385342   1 C  s                51     -9.905175   2 C  s         
   235     -9.812011   6 C  s               143      7.629553   4 C  s         
   189     -6.565582   5 C  s                97     -6.458030   3 C  s         
   326      5.866913   9 H  s               154      4.768417   4 C  py        
   349     -4.705255  10 H  s               303     -4.660515   8 H  s         
 
 Vector   32  Occ=0.000000D+00  E= 6.574284D-02
              MO Center=  3.9D-03, -2.3D-02,  5.3D-04, r^2= 1.8D+01
   Bfn.  Coefficient  Atom+Function         Bfn.  Coefficient  Atom+Function  
  ----- ------------  ---------------      ----- ------------  ---------------
   109      0.996974   3 C  pz              201     -0.953325   5 C  pz        
   247     -0.795640   6 C  pz               63      0.747422   2 C  pz        
   169     -0.677038   4 C  d  1             31     -0.583228   1 C  d  1      
   106      0.498961   3 C  pz              244     -0.495872   6 C  pz        
   198     -0.485072   5 C  pz               60      0.481371   2 C  pz        
 
 Vector   33  Occ=0.000000D+00  E= 6.825438D-02
              MO Center= -1.5D-02,  1.9D-01, -2.7D-04, r^2= 1.8D+01
   Bfn.  Coefficient  Atom+Function         Bfn.  Coefficient  Atom+Function  
  ----- ------------  ---------------      ----- ------------  ---------------
    63      1.033689   2 C  pz              247      1.016097   6 C  pz        
   201     -0.821458   5 C  pz              109     -0.797662   3 C  pz        
   155     -0.754076   4 C  pz               14      0.629136   1 C  pz        
   152     -0.618246   4 C  pz               17      0.456657   1 C  pz        
   213     -0.446165   5 C  d -1            121     -0.408849   3 C  d -1      
 
 Vector   34  Occ=0.000000D+00  E= 7.645201D-02
              MO Center=  1.2D-02, -1.6D-01, -1.2D-04, r^2= 3.5D+01
   Bfn.  Coefficient  Atom+Function         Bfn.  Coefficient  Atom+Function  
  ----- ------------  ---------------      ----- ------------  ---------------
   235    -13.967414   6 C  s                51     13.763846   2 C  s         
    97     12.415757   3 C  s               189    -12.405005   5 C  s         
    15      7.679169   1 C  px              153      7.705986   4 C  px        
   107      4.737756   3 C  px              303      4.701251   8 H  s         
   349     -4.680712  10 H  s               199      4.482006   5 C  px        
 
 Vector   35  Occ=0.000000D+00  E= 7.790844D-02
              MO Center=  2.0D-01, -3.3D+00,  1.3D-04, r^2= 2.1D+01
   Bfn.  Coefficient  Atom+Function         Bfn.  Coefficient  Atom+Function  
  ----- ------------  ---------------      ----- ------------  ---------------
   143     18.271258   4 C  s                51    -13.574568   2 C  s         
   235    -13.309566   6 C  s               326      7.028475   9 H  s         
    62      5.709628   2 C  py              246      5.620230   6 C  py        
   200      5.325620   5 C  py              154      5.271156   4 C  py        
   108      5.101768   3 C  py              371      4.206054  11 H  s         
 
 Vector   36  Occ=0.000000D+00  E= 8.154846D-02
              MO Center= -1.1D-01,  1.4D+00,  6.8D-05, r^2= 2.8D+01
   Bfn.  Coefficient  Atom+Function         Bfn.  Coefficient  Atom+Function  
  ----- ------------  ---------------      ----- ------------  ---------------
   143     20.700375   4 C  s                51     -8.986948   2 C  s         
   235     -8.889109   6 C  s                62      5.212899   2 C  py        
   246      5.211808   6 C  py              325     -4.964840   9 H  s         
   280     -4.594127   7 H  s               372     -4.533158  11 H  s         
   326      4.496747   9 H  s               200      4.419116   5 C  py        
 
 Vector   37  Occ=0.000000D+00  E= 8.316759D-02
              MO Center=  5.9D-02, -7.3D-01, -1.1D-05, r^2= 2.2D+01
   Bfn.  Coefficient  Atom+Function         Bfn.  Coefficient  Atom+Function  
  ----- ------------  ---------------      ----- ------------  ---------------
   189     -4.990880   5 C  s                97      4.900835   3 C  s         
   235      3.280525   6 C  s                51     -2.988580   2 C  s         
   303      2.805061   8 H  s               349     -2.808059  10 H  s         
   200     -2.749372   5 C  py              108      2.735578   3 C  py        
   153      2.609902   4 C  px              188     -2.091992   5 C  s         
 
 Vector   38  Occ=0.000000D+00  E= 9.540175D-02
              MO Center= -5.3D-02,  8.8D-01,  1.4D-05, r^2= 3.1D+01
   Bfn.  Coefficient  Atom+Function         Bfn.  Coefficient  Atom+Function  
  ----- ------------  ---------------      ----- ------------  ---------------
    51     17.718336   2 C  s               235    -17.636357   6 C  s         
   280      7.216910   7 H  s               372     -7.216369  11 H  s         
    97     -6.930741   3 C  s               189      6.881661   5 C  s         
   108     -6.474398   3 C  py              303     -6.194881   8 H  s         
   349      6.206669  10 H  s               200      5.898903   5 C  py        
 
 Vector   39  Occ=0.000000D+00  E= 1.017958D-01
              MO Center=  9.9D-03,  1.1D-01, -3.2D-04, r^2= 1.9D+01
   Bfn.  Coefficient  Atom+Function         Bfn.  Coefficient  Atom+Function  
  ----- ------------  ---------------      ----- ------------  ---------------
   235    -13.958583   6 C  s                51     13.515397   2 C  s         
    97     10.943250   3 C  s               189    -10.822512   5 C  s         
    15     10.004992   1 C  px              153      9.715473   4 C  px        
   200      6.099545   5 C  py              246     -6.030014   6 C  py        
    62      5.986771   2 C  py              108     -5.930706   3 C  py        
 
 Vector   40  Occ=0.000000D+00  E= 1.064728D-01
              MO Center= -2.5D-02,  1.3D-01, -5.6D-04, r^2= 2.1D+01
   Bfn.  Coefficient  Atom+Function         Bfn.  Coefficient  Atom+Function  
  ----- ------------  ---------------      ----- ------------  ---------------
   143     18.273684   4 C  s                51    -10.157525   2 C  s         
   235     -9.714041   6 C  s                 5     -9.462299   1 C  s         
   107     -8.759637   3 C  px              199      7.989177   5 C  px        
   245     -6.982962   6 C  px              200      6.599343   5 C  py        
    61      6.556164   2 C  px              108      5.801401   3 C  py        
 
 Vector   41  Occ=0.000000D+00  E= 1.081984D-01
              MO Center= -2.3D-02,  1.6D-01, -8.9D-05, r^2= 2.2D+01
   Bfn.  Coefficient  Atom+Function         Bfn.  Coefficient  Atom+Function  
  ----- ------------  ---------------      ----- ------------  ---------------
   109     -3.434311   3 C  pz              247     -3.400040   6 C  pz        
    63      3.380708   2 C  pz              201      3.291512   5 C  pz        
   244     -0.699800   6 C  pz               60      0.692847   2 C  pz        
   106     -0.649433   3 C  pz              198      0.624534   5 C  pz        
    77     -0.373507   2 C  d  1            215      0.351247   5 C  d  1      
 
 Vector   42  Occ=0.000000D+00  E= 1.089648D-01
              MO Center=  4.4D-02, -4.7D-01,  2.2D-03, r^2= 2.1D+01
   Bfn.  Coefficient  Atom+Function         Bfn.  Coefficient  Atom+Function  
  ----- ------------  ---------------      ----- ------------  ---------------
   155      5.321687   4 C  pz              201     -3.519583   5 C  pz        
   109     -3.369468   3 C  pz               17      2.508479   1 C  pz        
   152      0.982723   4 C  pz              198     -0.616902   5 C  pz        
   106     -0.590355   3 C  pz              167      0.570070   4 C  d -1      
    63     -0.545455   2 C  pz               14      0.504865   1 C  pz        
 
 Vector   43  Occ=0.000000D+00  E= 1.094922D-01
              MO Center=  2.7D-02, -4.5D-01, -1.2D-03, r^2= 2.7D+01
   Bfn.  Coefficient  Atom+Function         Bfn.  Coefficient  Atom+Function  
  ----- ------------  ---------------      ----- ------------  ---------------
   326      7.669535   9 H  s               154      7.056312   4 C  py        
   303     -6.471608   8 H  s               349     -6.483507  10 H  s         
   143     -5.604113   4 C  s               108     -4.434075   3 C  py        
    62     -4.171923   2 C  py              200     -4.182320   5 C  py        
   246     -4.117965   6 C  py                4      3.926496   1 C  s         
 
 Vector   44  Occ=0.000000D+00  E= 1.177931D-01
              MO Center= -4.2D-02,  6.5D-01, -4.3D-04, r^2= 1.4D+01
   Bfn.  Coefficient  Atom+Function         Bfn.  Coefficient  Atom+Function  
  ----- ------------  ---------------      ----- ------------  ---------------
    17      6.876511   1 C  pz               63     -6.026147   2 C  pz        
   247     -6.013435   6 C  pz              109      5.045875   3 C  pz        
   201      5.052060   5 C  pz              155     -4.819219   4 C  pz        
    14      1.235212   1 C  pz               60     -1.021902   2 C  pz        
   244     -1.017757   6 C  pz              106      0.890026   3 C  pz        
 
 Vector   45  Occ=0.000000D+00  E= 1.264038D-01
              MO Center= -1.5D-02,  2.9D-01, -2.0D-05, r^2= 2.5D+01
   Bfn.  Coefficient  Atom+Function         Bfn.  Coefficient  Atom+Function  
  ----- ------------  ---------------      ----- ------------  ---------------
    51      7.606203   2 C  s               235     -7.574735   6 C  s         
   107      7.189544   3 C  px              199      7.144316   5 C  px        
   245     -7.037323   6 C  px               61     -6.927389   2 C  px        
    15      6.446460   1 C  px               97     -6.197065   3 C  s         
   189      6.189073   5 C  s               153     -5.818966   4 C  px        
 
 Vector   46  Occ=0.000000D+00  E= 1.274465D-01
              MO Center= -1.3D-02,  1.9D-01,  1.3D-04, r^2= 2.6D+01
   Bfn.  Coefficient  Atom+Function         Bfn.  Coefficient  Atom+Function  
  ----- ------------  ---------------      ----- ------------  ---------------
   154     -8.031532   4 C  py               16      7.428409   1 C  py        
   108      6.891670   3 C  py               62     -6.562407   2 C  py        
   200      6.569052   5 C  py              246     -6.397082   6 C  py        
   326     -4.049641   9 H  s                 5      3.559090   1 C  s         
   303      3.162702   8 H  s               349      3.165622  10 H  s         
 
 Vector   47  Occ=0.000000D+00  E= 1.609396D-01
              MO Center= -8.6D-03,  1.4D-01,  9.4D-05, r^2= 1.7D+01
   Bfn.  Coefficient  Atom+Function         Bfn.  Coefficient  Atom+Function  
  ----- ------------  ---------------      ----- ------------  ---------------
    17      8.197174   1 C  pz               63     -8.011228   2 C  pz        
   247     -8.003768   6 C  pz              155     -7.858107   4 C  pz        
   109      7.771726   3 C  pz              201      7.774253   5 C  pz        
    60     -1.191174   2 C  pz              106      1.194919   3 C  pz        
   198      1.190393   5 C  pz              244     -1.194477   6 C  pz        
 
 Vector   48  Occ=0.000000D+00  E= 1.660239D-01
              MO Center= -8.2D-02,  1.4D+00,  3.2D-04, r^2= 2.2D+01
   Bfn.  Coefficient  Atom+Function         Bfn.  Coefficient  Atom+Function  
  ----- ------------  ---------------      ----- ------------  ---------------
     5     59.203845   1 C  s                51    -26.075835   2 C  s         
   143     25.973444   4 C  s               235    -25.893985   6 C  s         
   189    -14.569899   5 C  s                97    -14.253549   3 C  s         
   154      7.417797   4 C  py              245      6.883819   6 C  px        
    61     -6.348296   2 C  px              326      6.155564   9 H  s         
 
 Vector   49  Occ=0.000000D+00  E= 1.754180D-01
              MO Center=  2.4D-02, -3.9D-01, -1.8D-04, r^2= 1.1D+01
   Bfn.  Coefficient  Atom+Function         Bfn.  Coefficient  Atom+Function  
  ----- ------------  ---------------      ----- ------------  ---------------
   335      1.104761   9 H  pz              312      1.077208   8 H  pz        
   358      1.081590  10 H  pz              289      0.974415   7 H  pz        
   381      0.970993  11 H  pz               17      0.953602   1 C  pz        
    63     -0.879252   2 C  pz              247     -0.879029   6 C  pz        
   106     -0.844707   3 C  pz              198     -0.843138   5 C  pz        
 
 Vector   50  Occ=0.000000D+00  E= 1.864090D-01
              MO Center=  3.1D-02, -5.5D-01,  1.1D-04, r^2= 1.5D+01
   Bfn.  Coefficient  Atom+Function         Bfn.  Coefficient  Atom+Function  
  ----- ------------  ---------------      ----- ------------  ---------------
     5     15.535220   1 C  s                97     -7.259594   3 C  s         
   189     -7.293883   5 C  s                51     -4.708662   2 C  s         
   325      4.419167   9 H  s               235     -4.291545   6 C  s         
    62     -4.020433   2 C  py              154      3.984881   4 C  py        
   246     -3.844594   6 C  py              302      3.334651   8 H  s         
 
 Vector   51  Occ=0.000000D+00  E= 1.980339D-01
              MO Center=  5.8D-02,  4.7D-01,  3.7D-04, r^2= 2.3D+01
   Bfn.  Coefficient  Atom+Function         Bfn.  Coefficient  Atom+Function  
  ----- ------------  ---------------      ----- ------------  ---------------
   235     46.802610   6 C  s                51    -42.172508   2 C  s         
    97    -25.748635   3 C  s               189     24.596860   5 C  s         
    15    -18.493649   1 C  px              153    -16.986808   4 C  px        
   302     14.173400   8 H  s               348    -13.782849  10 H  s         
   200    -10.109389   5 C  py              371     -8.787600  11 H  s         
 
 Vector   52  Occ=0.000000D+00  E= 1.984366D-01
              MO Center= -5.8D-02, -7.3D-01, -5.0D-04, r^2= 2.3D+01
   Bfn.  Coefficient  Atom+Function         Bfn.  Coefficient  Atom+Function  
  ----- ------------  ---------------      ----- ------------  ---------------
   143     61.189079   4 C  s                51    -37.605152   2 C  s         
   235    -31.311694   6 C  s               325    -16.830808   9 H  s         
    62     14.645272   2 C  py              246     14.422409   6 C  py        
   108     13.239777   3 C  py              200     12.984259   5 C  py        
     5    -11.568299   1 C  s               279     11.602559   7 H  s         
 
 Vector   53  Occ=0.000000D+00  E= 2.154161D-01
              MO Center=  1.1D-01, -1.4D+00, -3.7D-05, r^2= 1.5D+01
   Bfn.  Coefficient  Atom+Function         Bfn.  Coefficient  Atom+Function  
  ----- ------------  ---------------      ----- ------------  ---------------
   189    -13.911199   5 C  s                97     13.802120   3 C  s         
   188     -6.620912   5 C  s                96      6.466573   3 C  s         
   153      6.338083   4 C  px              279     -5.131707   7 H  s         
   371      5.140174  11 H  s               349     -4.744083  10 H  s         
   303      4.713295   8 H  s               246     -4.513897   6 C  py        
 
 Vector   54  Occ=0.000000D+00  E= 2.182512D-01
              MO Center=  9.9D-03, -2.8D-01, -1.6D-04, r^2= 1.5D+01
   Bfn.  Coefficient  Atom+Function         Bfn.  Coefficient  Atom+Function  
  ----- ------------  ---------------      ----- ------------  ---------------
   143     25.728645   4 C  s               235    -18.387783   6 C  s         
    51    -17.120634   2 C  s                 5     15.972756   1 C  s         
    16     -6.415139   1 C  py              325     -6.035501   9 H  s         
    62      5.046726   2 C  py              246      4.485960   6 C  py        
   279      3.752843   7 H  s               371      3.713396  11 H  s         
 
 Vector   55  Occ=0.000000D+00  E= 2.190991D-01
              MO Center=  2.8D-02, -8.6D-02,  1.0D-03, r^2= 1.5D+01
   Bfn.  Coefficient  Atom+Function         Bfn.  Coefficient  Atom+Function  
  ----- ------------  ---------------      ----- ------------  ---------------
    51     20.375552   2 C  s               235    -19.203265   6 C  s         
   108     -8.578346   3 C  py              200      7.999756   5 C  py        
    15      7.498854   1 C  px              302     -6.936679   8 H  s         
   348      6.925313  10 H  s               153      6.283845   4 C  px        
   246     -4.231603   6 C  py               62      3.669751   2 C  py        
 
 Vector   56  Occ=0.000000D+00  E= 2.301180D-01
              MO Center= -7.4D-02,  2.9D-01,  1.9D-03, r^2= 1.8D+01
   Bfn.  Coefficient  Atom+Function         Bfn.  Coefficient  Atom+Function  
  ----- ------------  ---------------      ----- ------------  ---------------
   107      4.793409   3 C  px              199      4.774127   5 C  px        
   153     -3.559589   4 C  px               50     -3.347046   2 C  s         
   303      3.256854   8 H  s               234      3.201990   6 C  s         
   349     -3.059844  10 H  s                15     -2.625477   1 C  px        
   108      2.374116   3 C  py               59      1.961336   2 C  py        
 
 Vector   57  Occ=0.000000D+00  E= 2.311926D-01
              MO Center=  1.9D-03,  2.1D-03, -3.8D-03, r^2= 1.6D+01
   Bfn.  Coefficient  Atom+Function         Bfn.  Coefficient  Atom+Function  
  ----- ------------  ---------------      ----- ------------  ---------------
   106      2.142014   3 C  pz              198     -2.142199   5 C  pz        
    60      2.046945   2 C  pz              244     -2.048507   6 C  pz        
   312     -1.818661   8 H  pz              358      1.817558  10 H  pz        
   289     -1.717379   7 H  pz              381      1.723770  11 H  pz        
   169     -1.379161   4 C  d  1             31     -1.247192   1 C  d  1      
 
 Vector   58  Occ=0.000000D+00  E= 2.354088D-01
              MO Center= -1.9D-02,  2.1D-01,  3.5D-04, r^2= 1.6D+01
   Bfn.  Coefficient  Atom+Function         Bfn.  Coefficient  Atom+Function  
  ----- ------------  ---------------      ----- ------------  ---------------
   143     14.868453   4 C  s                51    -13.258555   2 C  s         
   107     -7.966656   3 C  px              199      8.003327   5 C  px        
   235     -7.588723   6 C  s                61      5.396428   2 C  px        
   245     -5.233058   6 C  px              349     -4.806918  10 H  s         
     5      4.040106   1 C  s               303     -3.999814   8 H  s         
 
 Vector   59  Occ=0.000000D+00  E= 2.365088D-01
              MO Center=  4.0D-02,  7.4D-02,  1.2D-03, r^2= 1.7D+01
   Bfn.  Coefficient  Atom+Function         Bfn.  Coefficient  Atom+Function  
  ----- ------------  ---------------      ----- ------------  ---------------
    97    -32.997105   3 C  s               189     33.105601   5 C  s         
   235    -32.342301   6 C  s                51     30.462285   2 C  s         
    96    -14.460117   3 C  s               188     14.215419   5 C  s         
   279     10.992429   7 H  s               302    -10.663521   8 H  s         
   348     10.554019  10 H  s               371    -10.524625  11 H  s         
 
 Vector   60  Occ=0.000000D+00  E= 2.434358D-01
              MO Center=  8.9D-04, -4.4D-02, -5.0D-04, r^2= 1.5D+01
   Bfn.  Coefficient  Atom+Function         Bfn.  Coefficient  Atom+Function  
  ----- ------------  ---------------      ----- ------------  ---------------
   152      3.414940   4 C  pz               14     -3.023698   1 C  pz        
   289      2.176501   7 H  pz              381      2.164945  11 H  pz        
   335     -2.124893   9 H  pz               77     -1.989400   2 C  d  1      
   261      1.998373   6 C  d  1             63     -1.601961   2 C  pz        
   247     -1.596124   6 C  pz              155      1.372321   4 C  pz        
 
 Vector   61  Occ=0.000000D+00  E= 2.594868D-01
              MO Center=  1.5D-02, -6.0D-01,  6.1D-05, r^2= 1.7D+01
   Bfn.  Coefficient  Atom+Function         Bfn.  Coefficient  Atom+Function  
  ----- ------------  ---------------      ----- ------------  ---------------
     5      8.750516   1 C  s               108     -6.708337   3 C  py        
   200     -6.016466   5 C  py              303     -5.230799   8 H  s         
   349     -5.143577  10 H  s               199      5.009129   5 C  px        
   105     -4.792070   3 C  py              143     -4.775516   4 C  s         
   197     -4.781767   5 C  py              154      4.391731   4 C  py        
 
 Vector   62  Occ=0.000000D+00  E= 2.620184D-01
              MO Center=  6.8D-02, -1.1D+00, -5.5D-05, r^2= 1.7D+01
   Bfn.  Coefficient  Atom+Function         Bfn.  Coefficient  Atom+Function  
  ----- ------------  ---------------      ----- ------------  ---------------
     5     18.953092   1 C  s               154     15.365670   4 C  py        
   143     15.164984   4 C  s                51    -14.557039   2 C  s         
   235    -14.569563   6 C  s               326      9.181005   9 H  s         
     4      6.019518   1 C  s               108     -4.711207   3 C  py        
    97     -4.664083   3 C  s               189     -4.648572   5 C  s         
 
 Vector   63  Occ=0.000000D+00  E= 2.676626D-01
              MO Center= -7.0D-03,  4.3D-01,  6.8D-05, r^2= 2.0D+01
   Bfn.  Coefficient  Atom+Function         Bfn.  Coefficient  Atom+Function  
  ----- ------------  ---------------      ----- ------------  ---------------
    51     20.253164   2 C  s               235    -20.146158   6 C  s         
    97    -11.920279   3 C  s               189     11.913869   5 C  s         
    61     10.989718   2 C  px              245     10.291038   6 C  px        
   188      8.779444   5 C  s                96     -8.730703   3 C  s         
   279      8.759017   7 H  s               371     -8.773220  11 H  s         
 
 Vector   64  Occ=0.000000D+00  E= 2.747858D-01
              MO Center=  6.7D-03,  2.4D-02,  6.8D-05, r^2= 1.4D+01
   Bfn.  Coefficient  Atom+Function         Bfn.  Coefficient  Atom+Function  
  ----- ------------  ---------------      ----- ------------  ---------------
   143      8.949948   4 C  s                 5      8.698556   1 C  s         
   154      5.763209   4 C  py              371     -5.748139  11 H  s         
   279     -5.559734   7 H  s               348     -4.687309  10 H  s         
   302     -4.611740   8 H  s               325     -4.360058   9 H  s         
    16     -4.029593   1 C  py              246      3.282220   6 C  py        
 
 Vector   65  Occ=0.000000D+00  E= 2.829756D-01
              MO Center= -1.7D-02,  1.8D-01, -1.9D-05, r^2= 1.6D+01
   Bfn.  Coefficient  Atom+Function         Bfn.  Coefficient  Atom+Function  
  ----- ------------  ---------------      ----- ------------  ---------------
    12      9.522281   1 C  px              189     -8.947491   5 C  s         
    97      8.848805   3 C  s               302      8.177397   8 H  s         
    51     -8.057161   2 C  s               348     -8.016088  10 H  s         
   235      7.976051   6 C  s               199      7.613828   5 C  px        
   107      7.180644   3 C  px              150      6.191822   4 C  px        
 
 Vector   66  Occ=0.000000D+00  E= 2.954274D-01
              MO Center= -5.5D-03,  5.0D-02, -1.6D-05, r^2= 1.6D+01
   Bfn.  Coefficient  Atom+Function         Bfn.  Coefficient  Atom+Function  
  ----- ------------  ---------------      ----- ------------  ---------------
    63      3.196341   2 C  pz              109     -3.202866   3 C  pz        
   247     -3.205831   6 C  pz              201      3.174285   5 C  pz        
   381      2.285758  11 H  pz              244     -2.265389   6 C  pz        
   289     -2.269039   7 H  pz              312      2.274172   8 H  pz        
    60      2.247945   2 C  pz              358     -2.252546  10 H  pz        
 
 Vector   67  Occ=0.000000D+00  E= 2.962827D-01
              MO Center= -6.1D-02,  9.6D-01,  4.1D-04, r^2= 1.4D+01
   Bfn.  Coefficient  Atom+Function         Bfn.  Coefficient  Atom+Function  
  ----- ------------  ---------------      ----- ------------  ---------------
     4     10.431050   1 C  s                59     -5.757322   2 C  py        
   243     -5.619003   6 C  py                5      5.524938   1 C  s         
   105     -5.539578   3 C  py              197     -5.138249   5 C  py        
    16      4.277616   1 C  py              279     -4.216585   7 H  s         
   371     -4.155025  11 H  s                13      3.912868   1 C  py        
 
 Vector   68  Occ=0.000000D+00  E= 3.080543D-01
              MO Center=  2.8D-02, -2.7D-01, -4.6D-04, r^2= 1.5D+01
   Bfn.  Coefficient  Atom+Function         Bfn.  Coefficient  Atom+Function  
  ----- ------------  ---------------      ----- ------------  ---------------
   155      5.181674   4 C  pz               14      4.365401   1 C  pz        
   201     -3.763124   5 C  pz              109     -3.724309   3 C  pz        
   335     -2.709010   9 H  pz               60     -2.064519   2 C  pz        
   244     -2.034453   6 C  pz              152      1.851747   4 C  pz        
    17      1.837315   1 C  pz               29     -1.720961   1 C  d -1      
 
 Vector   69  Occ=0.000000D+00  E= 3.150365D-01
              MO Center= -5.5D-03, -7.4D-02,  1.8D-05, r^2= 9.1D+00
   Bfn.  Coefficient  Atom+Function         Bfn.  Coefficient  Atom+Function  
  ----- ------------  ---------------      ----- ------------  ---------------
   261      1.246743   6 C  d  1             77      1.143053   2 C  d  1      
   169     -1.083615   4 C  d  1             75     -1.012124   2 C  d -1      
   259      0.885517   6 C  d -1            289     -0.732826   7 H  pz        
   381      0.712102  11 H  pz               31      0.634335   1 C  d  1      
    60     -0.353731   2 C  pz              244      0.319195   6 C  pz        
 
 Vector   70  Occ=0.000000D+00  E= 3.284600D-01
              MO Center=  4.0D-02, -6.2D-01,  7.2D-05, r^2= 1.5D+01
   Bfn.  Coefficient  Atom+Function         Bfn.  Coefficient  Atom+Function  
  ----- ------------  ---------------      ----- ------------  ---------------
   142     12.144008   4 C  s                96      8.829214   3 C  s         
   188      8.598092   5 C  s               151     -6.835695   4 C  py        
   325     -5.845829   9 H  s                 4     -5.235534   1 C  s         
   334     -5.006044   9 H  py                5      4.901671   1 C  s         
   302     -4.382987   8 H  s               348     -4.392101  10 H  s         
 
 Vector   71  Occ=0.000000D+00  E= 3.347354D-01
              MO Center= -3.3D-03,  2.5D-02,  1.9D-04, r^2= 7.7D+00
   Bfn.  Coefficient  Atom+Function         Bfn.  Coefficient  Atom+Function  
  ----- ------------  ---------------      ----- ------------  ---------------
   381      2.049028  11 H  pz              289      2.016983   7 H  pz        
   335      1.841353   9 H  pz               14     -1.758493   1 C  pz        
   155     -1.721368   4 C  pz               63     -1.584366   2 C  pz        
   247     -1.548533   6 C  pz               77     -1.481659   2 C  d  1      
   261      1.429314   6 C  d  1            198     -1.316468   5 C  pz        
 
 Vector   72  Occ=0.000000D+00  E= 3.433122D-01
              MO Center=  3.0D-02, -3.9D-01, -4.4D-03, r^2= 1.2D+01
   Bfn.  Coefficient  Atom+Function         Bfn.  Coefficient  Atom+Function  
  ----- ------------  ---------------      ----- ------------  ---------------
   169      3.293966   4 C  d  1             31      2.704722   1 C  d  1      
   312     -2.482520   8 H  pz              358      2.471252  10 H  pz        
   123      2.175641   3 C  d  1            215      2.144169   5 C  d  1      
   106     -1.825071   3 C  pz              198      1.769793   5 C  pz        
   381      1.456571  11 H  pz              289     -1.408118   7 H  pz        
 
 Vector   73  Occ=0.000000D+00  E= 3.449214D-01
              MO Center= -1.8D-02,  5.6D-01, -2.1D-03, r^2= 1.2D+01
   Bfn.  Coefficient  Atom+Function         Bfn.  Coefficient  Atom+Function  
  ----- ------------  ---------------      ----- ------------  ---------------
   143     23.689138   4 C  s               325    -13.016372   9 H  s         
    51    -12.238525   2 C  s               279     12.081109   7 H  s         
   371     11.749763  11 H  s               235    -11.263590   6 C  s         
     5     -7.712336   1 C  s               197     -6.895948   5 C  py        
   105     -6.806820   3 C  py              243     -6.082034   6 C  py        
 
 Vector   74  Occ=0.000000D+00  E= 3.478182D-01
              MO Center=  1.3D-02, -1.5D-01,  4.1D-03, r^2= 1.2D+01
   Bfn.  Coefficient  Atom+Function         Bfn.  Coefficient  Atom+Function  
  ----- ------------  ---------------      ----- ------------  ---------------
    51     21.155564   2 C  s               235    -21.183271   6 C  s         
   302    -12.151041   8 H  s               348     11.810961  10 H  s         
    97     11.043391   3 C  s               189    -10.850402   5 C  s         
   371     10.056382  11 H  s               279     -9.456702   7 H  s         
    12     -8.086858   1 C  px              150     -7.039902   4 C  px        
 
 Vector   75  Occ=0.000000D+00  E= 3.481515D-01
              MO Center=  3.9D-02, -5.3D-01,  3.1D-03, r^2= 1.3D+01
   Bfn.  Coefficient  Atom+Function         Bfn.  Coefficient  Atom+Function  
  ----- ------------  ---------------      ----- ------------  ---------------
   155     -3.940474   4 C  pz               17      3.749668   1 C  pz        
   109      3.532028   3 C  pz              201      3.531640   5 C  pz        
    63     -3.421572   2 C  pz              247     -3.418851   6 C  pz        
   152     -3.004838   4 C  pz              213     -2.307306   5 C  d -1      
   289      2.271686   7 H  pz              381      2.250784  11 H  pz        
 
 Vector   76  Occ=0.000000D+00  E= 3.527346D-01
              MO Center=  2.4D-02, -5.2D-01, -1.6D-04, r^2= 1.4D+01
   Bfn.  Coefficient  Atom+Function         Bfn.  Coefficient  Atom+Function  
  ----- ------------  ---------------      ----- ------------  ---------------
    17      6.408847   1 C  pz               63     -5.879267   2 C  pz        
   247     -5.869706   6 C  pz              109      5.139327   3 C  pz        
   201      5.144742   5 C  pz              155     -4.870271   4 C  pz        
   335      3.947797   9 H  pz               14      3.806950   1 C  pz        
   167      3.064064   4 C  d -1             60     -2.685287   2 C  pz        
 
 Vector   77  Occ=0.000000D+00  E= 3.546298D-01
              MO Center= -2.3D-02,  3.2D-01, -7.2D-04, r^2= 1.5D+01
   Bfn.  Coefficient  Atom+Function         Bfn.  Coefficient  Atom+Function  
  ----- ------------  ---------------      ----- ------------  ---------------
     5     31.343779   1 C  s               143     15.930856   4 C  s         
   235    -15.989423   6 C  s                51    -15.528086   2 C  s         
   151    -11.086564   4 C  py              196     -7.693086   5 C  px        
    50      7.424934   2 C  s               234      7.336652   6 C  s         
    13      7.273134   1 C  py              279     -7.139615   7 H  s         
 
 Vector   78  Occ=0.000000D+00  E= 3.598966D-01
              MO Center= -4.9D-02,  7.5D-01,  2.4D-04, r^2= 1.3D+01
   Bfn.  Coefficient  Atom+Function         Bfn.  Coefficient  Atom+Function  
  ----- ------------  ---------------      ----- ------------  ---------------
   289      3.412687   7 H  pz              381     -3.398217  11 H  pz        
   244     -3.168208   6 C  pz               60      3.143014   2 C  pz        
    77     -3.076681   2 C  d  1            121     -3.082624   3 C  d -1      
   259      3.024186   6 C  d -1            213      2.791783   5 C  d -1      
   312     -2.762171   8 H  pz              358      2.768767  10 H  pz        
 
 Vector   79  Occ=0.000000D+00  E= 3.685287D-01
              MO Center=  6.3D-03, -5.8D-01, -1.5D-04, r^2= 1.3D+01
   Bfn.  Coefficient  Atom+Function         Bfn.  Coefficient  Atom+Function  
  ----- ------------  ---------------      ----- ------------  ---------------
    96     10.785542   3 C  s               188     10.659433   5 C  s         
   104     -8.551815   3 C  px              196      8.451772   5 C  px        
   142     -7.530055   4 C  s                 5      7.168679   1 C  s         
   120     -5.351925   3 C  d -2            212      5.259068   5 C  d -2      
   258      5.245111   6 C  d -2             58      5.029044   2 C  px        
 
 Vector   80  Occ=0.000000D+00  E= 3.720771D-01
              MO Center=  3.6D-02, -3.1D-01, -2.2D-04, r^2= 1.3D+01
   Bfn.  Coefficient  Atom+Function         Bfn.  Coefficient  Atom+Function  
  ----- ------------  ---------------      ----- ------------  ---------------
    97      9.825472   3 C  s               189     -9.846382   5 C  s         
    50      9.037113   2 C  s               234     -8.990723   6 C  s         
   371      5.661754  11 H  s               357      5.346718  10 H  py        
   279     -5.297230   7 H  s               311     -5.021207   8 H  py        
   212     -4.965393   5 C  d -2             51     -4.824457   2 C  s         
 
 Vector   81  Occ=0.000000D+00  E= 3.819099D-01
              MO Center=  3.6D-02, -5.7D-01, -5.4D-06, r^2= 1.6D+01
   Bfn.  Coefficient  Atom+Function         Bfn.  Coefficient  Atom+Function  
  ----- ------------  ---------------      ----- ------------  ---------------
   166      9.070254   4 C  d -2            333      7.118118   9 H  px        
   150     -6.663587   4 C  px              216     -6.604653   5 C  d  2      
   124      6.043444   3 C  d  2            279      5.879958   7 H  s         
   371     -5.860108  11 H  s               310      5.047709   8 H  px        
   356      5.058136  10 H  px              188      4.921524   5 C  s         
 
 Vector   82  Occ=0.000000D+00  E= 3.932521D-01
              MO Center= -2.7D-02,  4.6D-01,  1.9D-04, r^2= 1.5D+01
   Bfn.  Coefficient  Atom+Function         Bfn.  Coefficient  Atom+Function  
  ----- ------------  ---------------      ----- ------------  ---------------
    12     12.195169   1 C  px              235     11.204238   6 C  s         
    51    -10.959694   2 C  s                78     -9.063495   2 C  d  2      
   262      8.789297   6 C  d  2             15     -6.839448   1 C  px        
   216      6.670630   5 C  d  2            124     -5.852319   3 C  d  2      
   153     -5.860602   4 C  px              379     -5.797820  11 H  px        
 
 Vector   83  Occ=0.000000D+00  E= 3.960420D-01
              MO Center= -5.0D-02,  8.3D-01,  2.0D-04, r^2= 1.2D+01
   Bfn.  Coefficient  Atom+Function         Bfn.  Coefficient  Atom+Function  
  ----- ------------  ---------------      ----- ------------  ---------------
   152     -7.532584   4 C  pz              106      7.341331   3 C  pz        
   198      7.337107   5 C  pz               60     -6.489769   2 C  pz        
   244     -6.472245   6 C  pz              167     -6.333960   4 C  d -1      
   215      5.102111   5 C  d  1            123     -4.730153   3 C  d  1      
    14      4.576011   1 C  pz              259      4.038760   6 C  d -1      
 
 Vector   84  Occ=0.000000D+00  E= 4.017324D-01
              MO Center= -1.4D-02,  5.2D-01, -7.2D-04, r^2= 1.5D+01
   Bfn.  Coefficient  Atom+Function         Bfn.  Coefficient  Atom+Function  
  ----- ------------  ---------------      ----- ------------  ---------------
     5     51.605667   1 C  s               235    -19.883013   6 C  s         
    51    -19.581417   2 C  s               189    -17.410204   5 C  s         
    97    -17.299750   3 C  s               143     11.603313   4 C  s         
   142    -10.285418   4 C  s                 4     -9.654140   1 C  s         
    50     -8.214023   2 C  s               325      7.878305   9 H  s         
 
 Vector   85  Occ=0.000000D+00  E= 4.052845D-01
              MO Center= -8.8D-03,  8.9D-02, -7.1D-05, r^2= 1.3D+01
   Bfn.  Coefficient  Atom+Function         Bfn.  Coefficient  Atom+Function  
  ----- ------------  ---------------      ----- ------------  ---------------
     5     33.892332   1 C  s               143     17.764620   4 C  s         
    51    -13.347055   2 C  s               235    -12.660809   6 C  s         
   188     10.059074   5 C  s                96      9.926003   3 C  s         
    97     -7.517260   3 C  s               189     -7.518167   5 C  s         
   262      6.974263   6 C  d  2             78      6.909811   2 C  d  2      
 
 Vector   86  Occ=0.000000D+00  E= 4.130630D-01
[...]
     Transition Moments   YY  0.00011  YZ  0.15821  ZZ  0.00002
     Dipole Oscillator Strength                    0.0096585873
     Electric Quadrupole                           0.0000000029
     Magnetic Dipole                               0.0000000302
     Total Oscillator Strength                     0.0096586204
 
     Occ.   19 alpha a   ---  Virt.   26 alpha a    0.88437 X
     Occ.   19 alpha a   ---  Virt.   35 alpha a   -0.06444 X
     Occ.   19 alpha a   ---  Virt.   36 alpha a   -0.06667 X
     Occ.   20 alpha a   ---  Virt.   25 alpha a    0.12362 X
     Occ.   20 alpha a   ---  Virt.   26 alpha a    0.42452 X
  ----------------------------------------------------------------------------
  Root  28         a              0.252700874 a.u.                6.8763 eV 
  <S2> =   1.8896
  ----------------------------------------------------------------------------
     Transition Moments    X  0.00004   Y  0.00001   Z  0.04874
     Transition Moments   XX  0.00002  XY -0.00003  XZ  0.38066
     Transition Moments   YY  0.00010  YZ  0.05914  ZZ  0.00003
     Dipole Oscillator Strength                    0.0004002280
     Electric Quadrupole                           0.0000000128
     Magnetic Dipole                               0.0000000105
     Total Oscillator Strength                     0.0004002513
 
     Occ.   19 alpha a   ---  Virt.   25 alpha a   -0.23820 X
     Occ.   19 alpha a   ---  Virt.   26 alpha a    0.42455 X
     Occ.   20 alpha a   ---  Virt.   26 alpha a   -0.86287 X
     Occ.   20 alpha a   ---  Virt.   35 alpha a    0.05487 X
     Occ.   20 alpha a   ---  Virt.   36 alpha a    0.05855 X
     Occ.   19 beta  a   ---  Virt.   26 beta  a    0.06826 X
  ----------------------------------------------------------------------------
  Root  29         a              0.253992065 a.u.                6.9115 eV 
  <S2> =   1.6112
  ----------------------------------------------------------------------------
     Transition Moments    X -0.00006   Y  0.00002   Z  0.00563
     Transition Moments   XX  0.00003  XY -0.00004  XZ  0.49468
     Transition Moments   YY  0.00012  YZ  0.03360  ZZ  0.00003
     Dipole Oscillator Strength                    0.0000053678
     Electric Quadrupole                           0.0000000215
     Magnetic Dipole                               0.0000000110
     Total Oscillator Strength                     0.0000054002
 
     Occ.   20 alpha a   ---  Virt.   26 alpha a   -0.06854 X
     Occ.   19 beta  a   ---  Virt.   26 beta  a   -0.98496 X
     Occ.   19 beta  a   ---  Virt.   35 beta  a    0.05777 X
     Occ.   19 beta  a   ---  Virt.   36 beta  a    0.07392 X
     Occ.   20 beta  a   ---  Virt.   25 beta  a   -0.09654 X
  ----------------------------------------------------------------------------
  Root  30         a              0.254729567 a.u.                6.9315 eV 
  <S2> =   0.7699
  ----------------------------------------------------------------------------
     Transition Moments    X  1.50681   Y  0.08159   Z -0.00002
     Transition Moments   XX  0.01164  XY -0.18423  XZ  0.00004
     Transition Moments   YY -0.05503  YZ -0.00002  ZZ -0.00269
     Dipole Oscillator Strength                    0.3867024138
     Electric Quadrupole                           0.0000000031
     Magnetic Dipole                               0.0000000175
     Total Oscillator Strength                     0.3867024344
 
     Occ.   19 alpha a   ---  Virt.   22 alpha a    0.37044 X
     Occ.   19 alpha a   ---  Virt.   22 alpha a   -0.05175 Y
     Occ.   19 alpha a   ---  Virt.   23 alpha a    0.10346 X
     Occ.   20 alpha a   ---  Virt.   22 alpha a    0.08883 X
     Occ.   20 alpha a   ---  Virt.   23 alpha a   -0.41563 X
     Occ.   20 alpha a   ---  Virt.   29 alpha a    0.13683 X
     Occ.   21 alpha a   ---  Virt.   25 alpha a   -0.07573 X
     Occ.   21 alpha a   ---  Virt.   27 alpha a    0.38358 X
     Occ.   13 beta  a   ---  Virt.   21 beta  a   -0.12827 X
     Occ.   15 beta  a   ---  Virt.   21 beta  a   -0.27163 X
     Occ.   19 beta  a   ---  Virt.   24 beta  a   -0.49951 X
     Occ.   19 beta  a   ---  Virt.   29 beta  a    0.13930 X
     Occ.   20 beta  a   ---  Virt.   22 beta  a    0.34926 X
     Occ.   20 beta  a   ---  Virt.   22 beta  a   -0.05624 Y
  ----------------------------------------------------------------------------
  Root  31         a              0.255322138 a.u.                6.9477 eV 
  <S2> =   0.8003
  ----------------------------------------------------------------------------
     Transition Moments    X  0.00977   Y -0.63719   Z -0.00000
     Transition Moments   XX -0.65205  XY  0.08344  XZ  0.00002
     Transition Moments   YY -1.88633  YZ -0.00003  ZZ -0.14718
     Dipole Oscillator Strength                    0.0691242973
     Electric Quadrupole                           0.0000000716
     Magnetic Dipole                               0.0000000000
     Total Oscillator Strength                     0.0691243689
 
     Occ.   19 alpha a   ---  Virt.   23 alpha a    0.10053 X
     Occ.   20 alpha a   ---  Virt.   22 alpha a    0.10968 X
     Occ.   21 alpha a   ---  Virt.   26 alpha a    0.18439 X
     Occ.   21 alpha a   ---  Virt.   28 alpha a   -0.91007 X
     Occ.   21 alpha a   ---  Virt.   30 alpha a   -0.12823 X
     Occ.   21 alpha a   ---  Virt.   31 alpha a   -0.16293 X
     Occ.   21 alpha a   ---  Virt.   48 alpha a    0.05654 X
     Occ.   16 beta  a   ---  Virt.   21 beta  a    0.18740 X
     Occ.   19 beta  a   ---  Virt.   22 beta  a    0.10947 X
     Occ.   20 beta  a   ---  Virt.   24 beta  a    0.09612 X
  ----------------------------------------------------------------------------
  Root  32         a              0.260668545 a.u.                7.0932 eV 
  <S2> =   0.7993
  ----------------------------------------------------------------------------
     Transition Moments    X -0.00001   Y  0.00001   Z -0.09569
     Transition Moments   XX  0.00001  XY  0.00001  XZ  0.04547
     Transition Moments   YY  0.00003  YZ -0.70586  ZZ -0.00000
     Dipole Oscillator Strength                    0.0015912022
     Electric Quadrupole                           0.0000000472
     Magnetic Dipole                               0.0000000334
     Total Oscillator Strength                     0.0015912828
 
     Occ.   21 alpha a   ---  Virt.   29 alpha a    0.97946 X
     Occ.   21 alpha a   ---  Virt.   33 alpha a    0.18002 X
  ----------------------------------------------------------------------------
  Root  33         a              0.265420848 a.u.                7.2225 eV 
  <S2> =   1.7809
  ----------------------------------------------------------------------------
     Transition Moments    X -0.00001   Y -0.00001   Z  0.00036
     Transition Moments   XX  0.00006  XY -0.00001  XZ -0.54669
     Transition Moments   YY  0.00003  YZ -0.02042  ZZ  0.00004
     Dipole Oscillator Strength                    0.0000000226
     Electric Quadrupole                           0.0000000298
     Magnetic Dipole                               0.0000000005
     Total Oscillator Strength                     0.0000000530
 
     Occ.   20 beta  a   ---  Virt.   27 beta  a   -0.99106 X
     Occ.   20 beta  a   ---  Virt.   38 beta  a    0.09650 X
  ----------------------------------------------------------------------------
  Root  34         a              0.267152452 a.u.                7.2696 eV 
  <S2> =   0.8199
  ----------------------------------------------------------------------------
     Transition Moments    X -0.06728   Y  1.19872   Z -0.00000
     Transition Moments   XX -0.01062  XY  0.04337  XZ -0.00001
     Transition Moments   YY -0.69807  YZ -0.00006  ZZ -0.04378
     Dipole Oscillator Strength                    0.2567267967
     Electric Quadrupole                           0.0000000155
     Magnetic Dipole                               0.0000000000
     Total Oscillator Strength                     0.2567268122
 
     Occ.   17 alpha a   ---  Virt.   23 alpha a    0.08499 X
     Occ.   19 alpha a   ---  Virt.   22 alpha a    0.05330 X
     Occ.   19 alpha a   ---  Virt.   23 alpha a   -0.29625 X
     Occ.   19 alpha a   ---  Virt.   29 alpha a   -0.15649 X
     Occ.   20 alpha a   ---  Virt.   22 alpha a   -0.21653 X
     Occ.   20 alpha a   ---  Virt.   23 alpha a   -0.07217 X
     Occ.   21 alpha a   ---  Virt.   28 alpha a   -0.29999 X
     Occ.   21 alpha a   ---  Virt.   30 alpha a    0.43369 X
     Occ.   21 alpha a   ---  Virt.   31 alpha a   -0.08110 X
     Occ.   14 beta  a   ---  Virt.   21 beta  a    0.08769 X
     Occ.   16 beta  a   ---  Virt.   21 beta  a   -0.49998 X
     Occ.   19 beta  a   ---  Virt.   22 beta  a   -0.22345 X
     Occ.   20 beta  a   ---  Virt.   24 beta  a   -0.30688 X
     Occ.   20 beta  a   ---  Virt.   29 beta  a   -0.34102 X
  ----------------------------------------------------------------------------
  Root  35         a              0.270833311 a.u.                7.3698 eV 
  <S2> =   2.7020
  ----------------------------------------------------------------------------
     Transition Moments    X -0.00000   Y -0.00001   Z -0.00944
     Transition Moments   XX -0.00000  XY -0.00000  XZ  0.06514
     Transition Moments   YY  0.00002  YZ -0.13707  ZZ -0.00001
     Dipole Oscillator Strength                    0.0000160920
     Electric Quadrupole                           0.0000000024
     Magnetic Dipole                               0.0000000000
     Total Oscillator Strength                     0.0000160944
 
     Occ.   19 alpha a   ---  Virt.   27 alpha a   -0.10757 X
     Occ.   20 alpha a   ---  Virt.   27 alpha a    0.78277 X
     Occ.   20 alpha a   ---  Virt.   38 alpha a   -0.08633 X
     Occ.   19 beta  a   ---  Virt.   27 beta  a   -0.58611 X
     Occ.   19 beta  a   ---  Virt.   38 beta  a    0.06899 X
     Occ.   20 beta  a   ---  Virt.   28 beta  a   -0.05506 X
     Occ.   20 beta  a   ---  Virt.   30 beta  a   -0.06144 X
  ----------------------------------------------------------------------------
  Root  36         a              0.271244448 a.u.                7.3809 eV 
  <S2> =   2.7407
  ----------------------------------------------------------------------------
     Transition Moments    X -0.04780   Y -0.00838   Z  0.00000
     Transition Moments   XX  0.01189  XY  0.02973  XZ -0.00002
     Transition Moments   YY -0.00875  YZ  0.00004  ZZ  0.00389
     Dipole Oscillator Strength                    0.0004258274
     Electric Quadrupole                           0.0000000001
     Magnetic Dipole                               0.0000000018
     Total Oscillator Strength                     0.0004258293
 
     Occ.   17 alpha a   ---  Virt.   22 alpha a   -0.59819 X
     Occ.   17 alpha a   ---  Virt.   41 alpha a    0.05238 X
     Occ.   19 alpha a   ---  Virt.   32 alpha a    0.08099 X
     Occ.   19 alpha a   ---  Virt.   44 alpha a   -0.05469 X
     Occ.   20 alpha a   ---  Virt.   29 alpha a   -0.15738 X
     Occ.   20 alpha a   ---  Virt.   44 alpha a    0.22068 X
     Occ.   20 alpha a   ---  Virt.   47 alpha a   -0.16885 X
     Occ.   17 beta  a   ---  Virt.   22 beta  a    0.64440 X
     Occ.   17 beta  a   ---  Virt.   41 beta  a   -0.05431 X
     Occ.   19 beta  a   ---  Virt.   29 beta  a    0.10405 X
     Occ.   19 beta  a   ---  Virt.   44 beta  a   -0.20065 X
     Occ.   19 beta  a   ---  Virt.   47 beta  a    0.16667 X
     Occ.   20 beta  a   ---  Virt.   31 beta  a   -0.10172 X
  ----------------------------------------------------------------------------
  Root  37         a              0.271692921 a.u.                7.3931 eV 
  <S2> =   1.0357
  ----------------------------------------------------------------------------
     Transition Moments    X -0.03148   Y  0.52998   Z -0.00000
     Transition Moments   XX -1.06434  XY -0.11391  XZ -0.00000
     Transition Moments   YY  0.75920  YZ -0.00002  ZZ -0.24132
     Dipole Oscillator Strength                    0.0510539173
     Electric Quadrupole                           0.0000000905
     Magnetic Dipole                               0.0000000000
     Total Oscillator Strength                     0.0510540077
 
     Occ.   17 alpha a   ---  Virt.   23 alpha a    0.06388 X
     Occ.   19 alpha a   ---  Virt.   23 alpha a   -0.09367 X
     Occ.   21 alpha a   ---  Virt.   30 alpha a   -0.79901 X
     Occ.   21 alpha a   ---  Virt.   31 alpha a    0.20696 X
     Occ.   21 alpha a   ---  Virt.   35 alpha a   -0.07544 X
     Occ.   21 alpha a   ---  Virt.   40 alpha a    0.05687 X
     Occ.   14 beta  a   ---  Virt.   21 beta  a    0.06509 X
     Occ.   16 beta  a   ---  Virt.   21 beta  a   -0.19631 X
     Occ.   19 beta  a   ---  Virt.   22 beta  a   -0.06219 X
     Occ.   20 beta  a   ---  Virt.   24 beta  a   -0.10123 X
     Occ.   20 beta  a   ---  Virt.   29 beta  a   -0.47403 X
  ----------------------------------------------------------------------------
  Root  38         a              0.271811903 a.u.                7.3964 eV 
  <S2> =   0.8683
  ----------------------------------------------------------------------------
     Transition Moments    X  0.00001   Y -0.00003   Z  0.02423
     Transition Moments   XX  0.00007  XY  0.00006  XZ -0.14716
     Transition Moments   YY -0.00011  YZ  0.84820  ZZ  0.00003
     Dipole Oscillator Strength                    0.0001064233
     Electric Quadrupole                           0.0000000793
     Magnetic Dipole                               0.0000000037
     Total Oscillator Strength                     0.0001065063
 
     Occ.   20 alpha a   ---  Virt.   27 alpha a   -0.59064 X
     Occ.   20 alpha a   ---  Virt.   38 alpha a    0.05071 X
     Occ.   19 beta  a   ---  Virt.   27 beta  a   -0.78780 X
     Occ.   19 beta  a   ---  Virt.   38 beta  a    0.07389 X
     Occ.   20 beta  a   ---  Virt.   28 beta  a    0.12070 X
  ----------------------------------------------------------------------------
  Root  39         a              0.272310729 a.u.                7.4100 eV 
  <S2> =   1.6926
  ----------------------------------------------------------------------------
     Transition Moments    X -0.00001   Y  0.00000   Z -0.00824
     Transition Moments   XX  0.00005  XY -0.00004  XZ -0.52416
     Transition Moments   YY  0.00003  YZ -0.24116  ZZ  0.00003
     Dipole Oscillator Strength                    0.0000123299
     Electric Quadrupole                           0.0000000358
     Magnetic Dipole                               0.0000000013
     Total Oscillator Strength                     0.0000123670
 
     Occ.   19 alpha a   ---  Virt.   27 alpha a   -0.97856 X
     Occ.   19 alpha a   ---  Virt.   38 alpha a    0.09469 X
     Occ.   20 alpha a   ---  Virt.   27 alpha a   -0.06939 X
     Occ.   19 beta  a   ---  Virt.   27 beta  a    0.09760 X
     Occ.   20 beta  a   ---  Virt.   28 beta  a   -0.09436 X
  ----------------------------------------------------------------------------
  Root  40         a              0.272523353 a.u.                7.4157 eV 
  <S2> =   1.9591
  ----------------------------------------------------------------------------
     Transition Moments    X -0.00001   Y  0.00003   Z  0.04113
     Transition Moments   XX  0.00003  XY  0.00002  XZ -0.05815
     Transition Moments   YY  0.00005  YZ  0.42881  ZZ  0.00001
     Dipole Oscillator Strength                    0.0003074032
     Electric Quadrupole                           0.0000000202
     Magnetic Dipole                               0.0000000054
     Total Oscillator Strength                     0.0003074287
 
     Occ.   19 alpha a   ---  Virt.   27 alpha a   -0.09710 X
     Occ.   19 alpha a   ---  Virt.   28 alpha a   -0.11183 X
     Occ.   20 alpha a   ---  Virt.   27 alpha a    0.11804 X
     Occ.   17 beta  a   ---  Virt.   21 beta  a   -0.05463 X
     Occ.   19 beta  a   ---  Virt.   27 beta  a    0.06831 X
     Occ.   20 beta  a   ---  Virt.   28 beta  a    0.96569 X
     Occ.   20 beta  a   ---  Virt.   30 beta  a    0.05574 X
     Occ.   20 beta  a   ---  Virt.   32 beta  a    0.07447 X
     Occ.   20 beta  a   ---  Virt.   43 beta  a    0.08062 X
 
              Target root =      1
          Target symmetry = none
      Ground state energy =   -231.646318103760
        Excitation energy =      0.106136803349
     Excited state energy =   -231.540181300411
 
  stored tddft:energy   -231.540181300411     

 Task  times  cpu:     2883.0s     wall:     2979.2s
 
 
                                NWChem Input Module
                                -------------------
 
 
 Summary of allocated global arrays
-----------------------------------
  No active global arrays



                         GA Statistics for process    0
                         ------------------------------

       create   destroy   get      put      acc     scatter   gather  read&inc
calls: 9466     9466     9.81e+06 4.03e+06 2.52e+06 5640        0      310     
number of processes/call 1.32e+00 1.75e+00 1.93e+00 0.00e+00 0.00e+00
bytes total:             8.94e+10 1.09e+10 9.78e+10 6.26e+04 0.00e+00 2.48e+03
bytes remote:            6.64e+10 1.08e+09 9.33e+10 0.00e+00 0.00e+00 0.00e+00
Max memory consumed for GA by this process: 205086464 bytes
 
MA_summarize_allocated_blocks: starting scan ...
MA_summarize_allocated_blocks: scan completed: 0 heap blocks, 0 stack blocks
MA usage statistics:

	allocation statistics:
					      heap	     stack
					      ----	     -----
	current number of blocks	         0	         0
	maximum number of blocks	        20	        52
	current total bytes		         0	         0
	maximum total bytes		   1166000	  68276408
	maximum total K-bytes		      1166	     68277
	maximum total M-bytes		         2	        69
 
 
                                     CITATION
                                     --------
                Please cite the following reference when publishing
                           results obtained with NWChem:
 
                 M. Valiev, E.J. Bylaska, N. Govind, K. Kowalski,
              T.P. Straatsma, H.J.J. van Dam, D. Wang, J. Nieplocha,
                        E. Apra, T.L. Windus, W.A. de Jong
                 "NWChem: a comprehensive and scalable open-source
                  solution for large scale molecular simulations"
                      Comput. Phys. Commun. 181, 1477 (2010)
                           doi:10.1016/j.cpc.2010.04.018
 
                                      AUTHORS
                                      -------
          E. Apra, E. J. Bylaska, W. A. de Jong, N. Govind, K. Kowalski,
       T. P. Straatsma, M. Valiev, H. J. J. van Dam, D. Wang, T. L. Windus,
        J. Hammond, J. Autschbach, K. Bhaskaran-Nair, J. Brabec, K. Lopata,
    S. A. Fischer, S. Krishnamoorthy, M. Jacquelin, W. Ma, M. Klemm, O. Villa,
      Y. Chen, V. Anisimov, F. Aquino, S. Hirata, M. T. Hackler, V. Konjkov,
            D. Mejia-Rodriguez, T. Risthaus, M. Malagoli, A. Marenich,
   A. Otero-de-la-Roza, J. Mullin, P. Nichols, R. Peverati, J. Pittner, Y. Zhao,
        P.-D. Fan, A. Fonari, M. J. Williamson, R. J. Harrison, J. R. Rehr,
      M. Dupuis, D. Silverstein, D. M. A. Smith, J. Nieplocha, V. Tipparaju,
    M. Krishnan, B. E. Van Kuiken, A. Vazquez-Mayagoitia, L. Jensen, M. Swart,
      Q. Wu, T. Van Voorhis, A. A. Auer, M. Nooijen, L. D. Crosby, E. Brown,
      G. Cisneros, G. I. Fann, H. Fruchtl, J. Garza, K. Hirao, R. A. Kendall,
      J. A. Nichols, K. Tsemekhman, K. Wolinski, J. Anchell, D. E. Bernholdt,
      P. Borowski, T. Clark, D. Clerc, H. Dachsel, M. J. O. Deegan, K. Dyall,
    D. Elwood, E. Glendening, M. Gutowski, A. C. Hess, J. Jaffe, B. G. Johnson,
     J. Ju, R. Kobayashi, R. Kutteh, Z. Lin, R. Littlefield, X. Long, B. Meng,
      T. Nakajima, S. Niu, L. Pollack, M. Rosing, K. Glaesemann, G. Sandrone,
      M. Stave, H. Taylor, G. Thomas, J. H. van Lenthe, A. T. Wong, Z. Zhang.

 Total times  cpu:     2883.0s     wall:     2979.4s
