 argument  1 = /storage/home/j/jbb5516/normalModes/mode1071.14-m.nw
 


============================== echo of input deck ==============================
echo
start

title "None"

geometry
C    -0.08763632    1.38829358    0.00000005
C    -1.26710267    0.69051973   -0.00000002
C    -1.16709154   -0.70422530   -0.00000002
C     0.08252775   -1.31601343    0.00000004
C     1.24685930   -0.55306626   -0.00000001
C     1.17076052    0.84535517    0.00000005
H    -2.23257696    1.17835820   -0.00000010
H    -2.06797452   -1.30439288   -0.00000009
H     0.14835548   -2.39553596    0.00000000
H     2.21478088   -1.03790130   -0.00000013
H     2.06501895    1.45413388   -0.00000010
symmetry c1
end

basis spherical
 * library "aug-cc-pvtz"
end

dft
 direct
 mult 2
 iterations 500
 xc b3lyp
end

tddft
 nroots 40
 notriplet
 algorithm 1
end
task tddft energy
================================================================================


                                         
                                         
 
 
              Northwest Computational Chemistry Package (NWChem) 6.8
              ------------------------------------------------------
 
 
                    Environmental Molecular Sciences Laboratory
                       Pacific Northwest National Laboratory
                                Richland, WA 99352
 
                              Copyright (c) 1994-2017
                       Pacific Northwest National Laboratory
                            Battelle Memorial Institute
 
             NWChem is an open-source computational chemistry package
                        distributed under the terms of the
                      Educational Community License (ECL) 2.0
             A copy of the license is included with this distribution
                              in the LICENSE.TXT file
 
                                  ACKNOWLEDGMENT
                                  --------------

            This software and its documentation were developed at the
            EMSL at Pacific Northwest National Laboratory, a multiprogram
            national laboratory, operated for the U.S. Department of Energy
            by Battelle under Contract Number DE-AC05-76RL01830. Support
            for this work was provided by the Department of Energy Office
            of Biological and Environmental Research, Office of Basic
            Energy Sciences, and the Office of Advanced Scientific Computing.


           Job information
           ---------------

    hostname        = comp-sc-0060.acib.production.int.aci.ics.psu.edu
    program         = /gpfs/group/lxj18/default/jeffprograms/nwchem-6.8.1/bin/LINUX64/nwchem
    date            = Sun Sep 20 14:41:22 2020

    compiled        = Wed_Oct_03_14:08:39_2018
    source          = /gpfs/group/lxj18/default/jeffprograms/nwchem-6.8.1
    nwchem branch   = 6.8.1
    nwchem revision = v6.8-143-gdb0d964
    ga revision     = 5.6.5
    use scalapack   = F
    input           = /storage/home/j/jbb5516/normalModes/mode1071.14-m.nw
    prefix          = mode1071.14-m.
    data base       = ./mode1071.14-m.db
    status          = startup
    nproc           =       20
    time left       =     -1s



           Memory information
           ------------------

    heap     =   13107194 doubles =    100.0 Mbytes
    stack    =   13107199 doubles =    100.0 Mbytes
    global   =   26214400 doubles =    200.0 Mbytes (distinct from heap & stack)
    total    =   52428793 doubles =    400.0 Mbytes
    verify   = yes
    hardfail = no 


           Directory information
           ---------------------
 
  0 permanent = .
  0 scratch   = .
 
 
 
 
                                NWChem Input Module
                                -------------------
 
 
                                       None
                                       ----

 Scaling coordinates for geometry "geometry" by  1.889725989
 (inverse scale =  0.529177249)

 Turning off AUTOSYM since
 SYMMETRY directive was detected!
 

          ------
          auto-z
          ------
 
 
                             Geometry "geometry" -> ""
                             -------------------------
 
 Output coordinates in angstroms (scale by  1.889725989 to convert to a.u.)
 
  No.       Tag          Charge          X              Y              Z
 ---- ---------------- ---------- -------------- -------------- --------------
    1 C                    6.0000    -0.08757549     1.38829741     0.00000005
    2 C                    6.0000    -1.26704184     0.69052356    -0.00000002
    3 C                    6.0000    -1.16703071    -0.70422147    -0.00000002
    4 C                    6.0000     0.08258858    -1.31600960     0.00000004
    5 C                    6.0000     1.24692013    -0.55306243    -0.00000001
    6 C                    6.0000     1.17082135     0.84535900     0.00000005
    7 H                    1.0000    -2.23251613     1.17836203    -0.00000010
    8 H                    1.0000    -2.06791369    -1.30438905    -0.00000009
    9 H                    1.0000     0.14841631    -2.39553213    -0.00000000
   10 H                    1.0000     2.21484171    -1.03789747    -0.00000013
   11 H                    1.0000     2.06507978     1.45413771    -0.00000010
 
      Atomic Mass 
      ----------- 
 
      C                 12.000000
      H                  1.007825
 

 Effective nuclear repulsion energy (a.u.)     195.0640220890

            Nuclear Dipole moment (a.u.) 
            ----------------------------
        X                 Y               Z
 ---------------- ---------------- ----------------
    -0.0000000000     0.0000000000     0.0000000000
 


                                Z-matrix (autoz)
                                -------- 

 Units are Angstrom for bonds and degrees for angles
 
      Type          Name      I     J     K     L     M      Value
      ----------- --------  ----- ----- ----- ----- ----- ----------
    1 Stretch                  1     2                       1.37041
    2 Stretch                  1     6                       1.37053
    3 Stretch                  2     3                       1.39833
    4 Stretch                  2     7                       1.08172
    5 Stretch                  3     4                       1.39134
    6 Stretch                  3     8                       1.08249
    7 Stretch                  4     5                       1.39203
    8 Stretch                  4     9                       1.08153
    9 Stretch                  5     6                       1.40049
   10 Stretch                  5    10                       1.08256
   11 Stretch                  6    11                       1.08181
   12 Bend                     1     2     3               116.50720
   13 Bend                     1     2     7               122.58466
   14 Bend                     1     6     5               116.45273
   15 Bend                     1     6    11               122.41648
   16 Bend                     2     1     6               126.05348
   17 Bend                     2     3     4               120.18684
   18 Bend                     2     3     8               119.57011
   19 Bend                     3     2     7               120.90814
   20 Bend                     3     4     5               120.67910
   21 Bend                     3     4     9               119.57492
   22 Bend                     4     3     8               120.24305
   23 Bend                     4     5     6               120.12064
   24 Bend                     4     5    10               120.15809
   25 Bend                     5     4     9               119.74598
   26 Bend                     5     6    11               121.13079
   27 Bend                     6     5    10               119.72127
   28 Torsion                  1     2     3     4           0.00000
   29 Torsion                  1     2     3     8        -180.00000
   30 Torsion                  1     6     5     4           0.00000
   31 Torsion                  1     6     5    10         180.00000
   32 Torsion                  2     1     6     5           0.00000
   33 Torsion                  2     1     6    11         180.00000
   34 Torsion                  2     3     4     5           0.00000
   35 Torsion                  2     3     4     9        -180.00000
   36 Torsion                  3     2     1     6           0.00000
   37 Torsion                  3     4     5     6           0.00000
   38 Torsion                  3     4     5    10        -180.00000
   39 Torsion                  4     3     2     7         180.00000
   40 Torsion                  4     5     6    11        -180.00000
   41 Torsion                  5     4     3     8         180.00000
   42 Torsion                  6     1     2     7        -180.00000
   43 Torsion                  6     5     4     9        -180.00000
   44 Torsion                  7     2     3     8           0.00000
   45 Torsion                  8     3     4     9           0.00000
   46 Torsion                  9     4     5    10           0.00000
   47 Torsion                 10     5     6    11           0.00000
 
 
            XYZ format geometry
            -------------------
    11
 geometry
 C                    -0.08757549     1.38829741     0.00000005
 C                    -1.26704184     0.69052356    -0.00000002
 C                    -1.16703071    -0.70422147    -0.00000002
 C                     0.08258858    -1.31600960     0.00000004
 C                     1.24692013    -0.55306243    -0.00000001
 C                     1.17082135     0.84535900     0.00000005
 H                    -2.23251613     1.17836203    -0.00000010
 H                    -2.06791369    -1.30438905    -0.00000009
 H                     0.14841631    -2.39553213    -0.00000000
 H                     2.21484171    -1.03789747    -0.00000013
 H                     2.06507978     1.45413771    -0.00000010
 
 ==============================================================================
                                internuclear distances
 ------------------------------------------------------------------------------
       center one      |      center two      | atomic units |  angstroms
 ------------------------------------------------------------------------------
    2 C                |   1 C                |     2.58970  |     1.37041
    3 C                |   2 C                |     2.64245  |     1.39833
    4 C                |   3 C                |     2.62926  |     1.39134
    5 C                |   4 C                |     2.63056  |     1.39203
    6 C                |   1 C                |     2.58992  |     1.37053
    6 C                |   5 C                |     2.64654  |     1.40049
    7 H                |   2 C                |     2.04416  |     1.08172
    8 H                |   3 C                |     2.04562  |     1.08249
    9 H                |   4 C                |     2.04379  |     1.08153
   10 H                |   5 C                |     2.04574  |     1.08256
   11 H                |   6 C                |     2.04432  |     1.08181
 ------------------------------------------------------------------------------
                         number of included internuclear distances:         11
 ==============================================================================



 ==============================================================================
                                 internuclear angles
 ------------------------------------------------------------------------------
        center 1       |       center 2       |       center 3       |  degrees
 ------------------------------------------------------------------------------
    2 C                |   1 C                |   6 C                |   126.05
    1 C                |   2 C                |   3 C                |   116.51
    1 C                |   2 C                |   7 H                |   122.58
    3 C                |   2 C                |   7 H                |   120.91
    2 C                |   3 C                |   4 C                |   120.19
    2 C                |   3 C                |   8 H                |   119.57
    4 C                |   3 C                |   8 H                |   120.24
    3 C                |   4 C                |   5 C                |   120.68
    3 C                |   4 C                |   9 H                |   119.57
    5 C                |   4 C                |   9 H                |   119.75
    4 C                |   5 C                |   6 C                |   120.12
    4 C                |   5 C                |  10 H                |   120.16
    6 C                |   5 C                |  10 H                |   119.72
    1 C                |   6 C                |   5 C                |   116.45
    1 C                |   6 C                |  11 H                |   122.42
    5 C                |   6 C                |  11 H                |   121.13
 ------------------------------------------------------------------------------
                            number of included internuclear angles:         16
 ==============================================================================





 Summary of "ao basis" -> "" (spherical)
 ------------------------------------------------------------------------------
       Tag                 Description            Shells   Functions and Types
 ---------------- ------------------------------  ------  ---------------------
 *                        aug-cc-pvtz                 on all atoms 


 
                                 NWChem DFT Module
                                 -----------------
 
 
                                       None
 
 
                      Basis "ao basis" -> "ao basis" (spherical)
                      -----
  C (Carbon)
  ----------
            Exponent  Coefficients 
       -------------- ---------------------------------------------------------
  1 S  8.23600000E+03  0.000531
  1 S  1.23500000E+03  0.004108
  1 S  2.80800000E+02  0.021087
  1 S  7.92700000E+01  0.081853
  1 S  2.55900000E+01  0.234817
  1 S  8.99700000E+00  0.434401
  1 S  3.31900000E+00  0.346129
  1 S  3.64300000E-01 -0.008983
 
  2 S  8.23600000E+03 -0.000113
  2 S  1.23500000E+03 -0.000878
  2 S  2.80800000E+02 -0.004540
  2 S  7.92700000E+01 -0.018133
  2 S  2.55900000E+01 -0.055760
  2 S  8.99700000E+00 -0.126895
  2 S  3.31900000E+00 -0.170352
  2 S  3.64300000E-01  0.598684
 
  3 S  9.05900000E-01  1.000000
 
  4 S  1.28500000E-01  1.000000
 
  5 S  4.40200000E-02  1.000000
 
  6 P  1.87100000E+01  0.014031
  6 P  4.13300000E+00  0.086866
  6 P  1.20000000E+00  0.290216
 
  7 P  3.82700000E-01  1.000000
 
  8 P  1.20900000E-01  1.000000
 
  9 P  3.56900000E-02  1.000000
 
 10 D  1.09700000E+00  1.000000
 
 11 D  3.18000000E-01  1.000000
 
 12 D  1.00000000E-01  1.000000
 
 13 F  7.61000000E-01  1.000000
 
 14 F  2.68000000E-01  1.000000
 
  H (Hydrogen)
  ------------
            Exponent  Coefficients 
       -------------- ---------------------------------------------------------
  1 S  3.38700000E+01  0.006068
  1 S  5.09500000E+00  0.045308
  1 S  1.15900000E+00  0.202822
 
  2 S  3.25800000E-01  1.000000
 
  3 S  1.02700000E-01  1.000000
 
  4 S  2.52600000E-02  1.000000
 
  5 P  1.40700000E+00  1.000000
 
  6 P  3.88000000E-01  1.000000
 
  7 P  1.02000000E-01  1.000000
 
  8 D  1.05700000E+00  1.000000
 
  9 D  2.47000000E-01  1.000000
 


 Summary of "ao basis" -> "ao basis" (spherical)
 ------------------------------------------------------------------------------
       Tag                 Description            Shells   Functions and Types
 ---------------- ------------------------------  ------  ---------------------
 C                        aug-cc-pvtz               14       46   5s4p3d2f
 H                        aug-cc-pvtz                9       23   4s3p2d




 Summary of "ao basis" -> "ao basis" (spherical)
 ------------------------------------------------------------------------------
       Tag                 Description            Shells   Functions and Types
 ---------------- ------------------------------  ------  ---------------------
 C                        aug-cc-pvtz               14       46   5s4p3d2f
 H                        aug-cc-pvtz                9       23   4s3p2d


  Caching 1-el integrals 
 
            General Information
            -------------------
          SCF calculation type: DFT
          Wavefunction type:  spin polarized.
          No. of atoms     :    11
          No. of electrons :    41
           Alpha electrons :    21
            Beta electrons :    20
          Charge           :     0
          Spin multiplicity:     2
          Use of symmetry is: off; symmetry adaption is: off
          Maximum number of iterations: 500
          This is a Direct SCF calculation.
          AO basis - number of functions:   391
                     number of shells:   129
          Convergence on energy requested:  1.00D-06
          Convergence on density requested:  1.00D-05
          Convergence on gradient requested:  5.00D-04
 
              XC Information
              --------------
                         B3LYP Method XC Potential
                     Hartree-Fock (Exact) Exchange  0.200          
                        Slater Exchange Functional  0.800 local    
                    Becke 1988 Exchange Functional  0.720 non-local
              Lee-Yang-Parr Correlation Functional  0.810          
                  VWN I RPA Correlation Functional  0.190 local    
 
             Grid Information
             ----------------
          Grid used for XC integration:  medium    
          Radial quadrature: Mura-Knowles        
          Angular quadrature: Lebedev. 
          Tag              B.-S. Rad. Rad. Pts. Rad. Cut. Ang. Pts.
          ---              ---------- --------- --------- ---------
          C                   0.70       49          15.0       434
          H                   0.35       45          17.0       434
          Grid pruning is: on 
          Number of quadrature shells:   519
          Spatial weights used:  Erf1
 
          Convergence Information
          -----------------------
          Convergence aids based upon iterative change in 
          total energy or number of iterations. 
          Levelshifting, if invoked, occurs when the 
          HOMO/LUMO gap drops below (HL_TOL):  1.00D-02
          DIIS, if invoked, will attempt to extrapolate 
          using up to (NFOCK): 10 stored Fock matrices.

                    Damping( 0%)  Levelshifting(0.5)       DIIS
                  --------------- ------------------- ---------------
          dE  on:    start            ASAP                start   
          dE off:    2 iters        500 iters           500 iters 

 
      Screening Tolerance Information
      -------------------------------
          Density screening/tol_rho:  1.00D-10
          AO Gaussian exp screening on grid/accAOfunc:  14
          CD Gaussian exp screening on grid/accCDfunc:  20
          XC Gaussian exp screening on grid/accXCfunc:  20
          Schwarz screening/accCoul:  1.00D-08

 
 WARNING : Found     7 linear dependencies 
 S eigenvalue threshold:     1.00000E-05
 Smallest S eigenvalue :     1.46345E-06
 Largest  S eigenvalue :     7.76574E-06
 

 !! The overlap matrix has   7 vectors deemed linearly dependent with
    eigenvalues:
 1.46D-06 2.24D-06 2.83D-06 3.54D-06 5.27D-06 5.95D-06 7.77D-06
 
 
      Superposition of Atomic Density Guess
      -------------------------------------
 
 Sum of atomic energies:        -228.52307259
 
      Non-variational initial energy
      ------------------------------

 Total energy =    -232.667212
 1-e energy   =    -691.328553
 2-e energy   =     263.597318
 HOMO         =      -0.183326
 LUMO         =      -0.022268
 
   Time after variat. SCF:     10.3
   Time prior to 1st pass:     10.3

 Grid_pts file          = ./mode1071.14-m.gridpts.00
 Record size in doubles =  12289        No. of grid_pts per rec  =   3070
 Max. records in memory =      6        Max. recs in file   = 221854073

 Grid integrated density:      40.999766417558
 Requested integration accuracy:   0.10E-05

           Memory utilization after 1st SCF pass: 
           Heap Space remaining (MW):       12.96            12961274
          Stack Space remaining (MW):       13.10            13103684

   convergence    iter        energy       DeltaE   RMS-Dens  Diis-err    time
 ---------------- ----- ----------------- --------- --------- ---------  ------
 d= 0,ls=0.0,diis     1   -231.5814982023 -4.27D+02  6.14D-02  2.09D-01    21.0
                                                     6.92D-02  1.96D-01
 d= 0,ls=0.0,diis     2   -231.6398431886 -5.83D-02  6.05D-02  1.22D-02    31.7
                                                     6.81D-02  1.25D-02
 d= 0,ls=0.0,diis     3   -231.6446011449 -4.76D-03  1.27D-03  3.45D-03    42.4
                                                     1.38D-03  3.51D-03
 d= 0,ls=0.0,diis     4   -231.6457613510 -1.16D-03  2.03D-04  1.13D-03    53.1
                                                     2.07D-04  1.07D-03
 d= 0,ls=0.0,diis     5   -231.6462815535 -5.20D-04  3.35D-05  4.59D-05    63.8
                                                     3.06D-05  5.17D-05
  Resetting Diis
 d= 0,ls=0.0,diis     6   -231.6463093153 -2.78D-05  1.07D-05  1.15D-05    74.6
                                                     1.04D-05  9.88D-06
 d= 0,ls=0.0,diis     7   -231.6463171080 -7.79D-06  8.10D-06  2.60D-06    85.3
                                                     7.37D-06  2.68D-06
 d= 0,ls=0.0,diis     8   -231.6463176823 -5.74D-07  3.19D-06  7.12D-06    96.0
                                                     2.98D-06  6.64D-06


         Total DFT energy =     -231.646317682292
      One electron energy =     -696.562110693990
           Coulomb energy =      304.260955299388
    Exchange-Corr. energy =      -34.409184376666
 Nuclear repulsion energy =      195.064022088976

 Numeric. integr. density =       40.999984427820

     Total iterative time =     85.8s


 
                    DFT Final Alpha Molecular Orbital Analysis
                    ------------------------------------------
 
 Vector    1  Occ=1.000000D+00  E=-1.020521D+01
              MO Center= -8.8D-02,  1.4D+00,  4.8D-08, r^2= 3.0D-02
   Bfn.  Coefficient  Atom+Function         Bfn.  Coefficient  Atom+Function  
  ----- ------------  ---------------      ----- ------------  ---------------
     1      0.984158   1 C  s                 3      0.058846   1 C  s         
   234     -0.038613   6 C  s                50     -0.038171   2 C  s         
   371      0.038148  11 H  s               143      0.037885   4 C  s         
   279      0.037752   7 H  s                51     -0.030766   2 C  s         
   235     -0.030586   6 C  s               231      0.025683   6 C  s         
 
 Vector    2  Occ=1.000000D+00  E=-1.019196D+01
              MO Center=  1.2D+00, -4.9D-01, -1.2D-08, r^2= 1.2D-01
   Bfn.  Coefficient  Atom+Function         Bfn.  Coefficient  Atom+Function  
  ----- ------------  ---------------      ----- ------------  ---------------
   185      0.963093   5 C  s               231      0.207935   6 C  s         
   142     -0.072060   4 C  s               348      0.059533  10 H  s         
   187      0.057461   5 C  s                50      0.053791   2 C  s         
   279     -0.043471   7 H  s               139      0.042847   4 C  s         
    51      0.042219   2 C  s               325      0.036766   9 H  s         
 
 Vector    3  Occ=1.000000D+00  E=-1.019165D+01
              MO Center= -1.2D+00, -6.3D-01, -2.4D-08, r^2= 1.4D-01
   Bfn.  Coefficient  Atom+Function         Bfn.  Coefficient  Atom+Function  
  ----- ------------  ---------------      ----- ------------  ---------------
    93      0.958642   3 C  s                47      0.227431   2 C  s         
   142     -0.068285   4 C  s               302      0.060462   8 H  s         
    95      0.057297   3 C  s               234      0.054808   6 C  s         
   371     -0.045483  11 H  s               235      0.044285   6 C  s         
   139      0.042298   4 C  s                97     -0.037251   3 C  s         
 
 Vector    4  Occ=1.000000D+00  E=-1.019053D+01
              MO Center=  1.2D+00,  7.8D-01,  4.5D-08, r^2= 1.2D-01
   Bfn.  Coefficient  Atom+Function         Bfn.  Coefficient  Atom+Function  
  ----- ------------  ---------------      ----- ------------  ---------------
   231      0.962974   6 C  s               185     -0.205394   5 C  s         
   371      0.058667  11 H  s               233      0.056036   6 C  s         
    97      0.038910   3 C  s                96      0.034755   3 C  s         
   143      0.032357   4 C  s                12     -0.030554   1 C  px        
     4     -0.030235   1 C  s               189     -0.030335   5 C  s         
 
 Vector    5  Occ=1.000000D+00  E=-1.019031D+01
              MO Center= -1.3D+00,  6.2D-01, -2.4D-08, r^2= 1.3D-01
   Bfn.  Coefficient  Atom+Function         Bfn.  Coefficient  Atom+Function  
  ----- ------------  ---------------      ----- ------------  ---------------
    47      0.958753   2 C  s                93     -0.224469   3 C  s         
   279      0.058181   7 H  s                49      0.055739   2 C  s         
   189      0.040047   5 C  s               188      0.036039   5 C  s         
    97     -0.031441   3 C  s               143      0.031404   4 C  s         
    12      0.031195   1 C  px               96     -0.030430   3 C  s         
 
 Vector    6  Occ=1.000000D+00  E=-1.018444D+01
              MO Center=  8.2D-02, -1.3D+00,  3.9D-08, r^2= 3.5D-02
   Bfn.  Coefficient  Atom+Function         Bfn.  Coefficient  Atom+Function  
  ----- ------------  ---------------      ----- ------------  ---------------
   139      0.984209   4 C  s               141      0.057789   4 C  s         
    96     -0.045919   3 C  s               188     -0.045865   5 C  s         
   325      0.045944   9 H  s               143     -0.043455   4 C  s         
    93     -0.041527   3 C  s                 4      0.040415   1 C  s         
   185     -0.039469   5 C  s               151      0.036001   4 C  py        
 
 Vector    7  Occ=1.000000D+00  E=-8.724900D-01
              MO Center= -1.0D-02,  9.9D-02,  4.9D-09, r^2= 2.0D+00
   Bfn.  Coefficient  Atom+Function         Bfn.  Coefficient  Atom+Function  
  ----- ------------  ---------------      ----- ------------  ---------------
     2      0.213926   1 C  s                48      0.203301   2 C  s         
   232      0.202196   6 C  s                94      0.196137   3 C  s         
   186      0.194922   5 C  s               140      0.188305   4 C  s         
    50      0.090463   2 C  s               234      0.089901   6 C  s         
    96      0.088333   3 C  s               188      0.087926   5 C  s         
 
 Vector    8  Occ=1.000000D+00  E=-7.627745D-01
              MO Center= -4.6D-03,  1.0D-01,  1.6D-09, r^2= 2.8D+00
   Bfn.  Coefficient  Atom+Function         Bfn.  Coefficient  Atom+Function  
  ----- ------------  ---------------      ----- ------------  ---------------
   232     -0.251980   6 C  s                48      0.250139   2 C  s         
    94      0.244109   3 C  s               186     -0.243146   5 C  s         
   234     -0.146929   6 C  s                50      0.145551   2 C  s         
   279     -0.129288   7 H  s               371      0.129520  11 H  s         
   150     -0.115503   4 C  px               97      0.110722   3 C  s         
 
 Vector    9  Occ=1.000000D+00  E=-7.537622D-01
              MO Center=  9.1D-03, -1.5D-01, -2.7D-08, r^2= 2.6D+00
   Bfn.  Coefficient  Atom+Function         Bfn.  Coefficient  Atom+Function  
  ----- ------------  ---------------      ----- ------------  ---------------
   140     -0.301145   4 C  s                 2      0.278276   1 C  s         
    48      0.149339   2 C  s               186     -0.149843   5 C  s         
    94     -0.147604   3 C  s               142     -0.147396   4 C  s         
   232      0.146976   6 C  s               188     -0.105441   5 C  s         
    96     -0.104316   3 C  s                 4      0.102954   1 C  s         
 
 Vector   10  Occ=1.000000D+00  E=-6.187649D-01
              MO Center=  7.1D-04,  3.8D-02, -1.0D-08, r^2= 3.6D+00
   Bfn.  Coefficient  Atom+Function         Bfn.  Coefficient  Atom+Function  
  ----- ------------  ---------------      ----- ------------  ---------------
   186      0.209342   5 C  s                94     -0.208029   3 C  s         
    48      0.199562   2 C  s               232     -0.199136   6 C  s         
    50      0.182961   2 C  s               234     -0.183760   6 C  s         
   188      0.148214   5 C  s                96     -0.145757   3 C  s         
     6     -0.127190   1 C  px              144      0.116995   4 C  px        
 
 Vector   11  Occ=1.000000D+00  E=-6.035658D-01
              MO Center=  2.5D-03, -8.6D-02, -3.2D-08, r^2= 3.5D+00
   Bfn.  Coefficient  Atom+Function         Bfn.  Coefficient  Atom+Function  
  ----- ------------  ---------------      ----- ------------  ---------------
   142      0.258359   4 C  s                 2      0.239056   1 C  s         
   140      0.218586   4 C  s                 4      0.198645   1 C  s         
    94     -0.138798   3 C  s               186     -0.138062   5 C  s         
   234     -0.123591   6 C  s                50     -0.121870   2 C  s         
    96     -0.119425   3 C  s               188     -0.119106   5 C  s         
 
 Vector   12  Occ=1.000000D+00  E=-5.277663D-01
              MO Center=  6.2D-03, -1.5D-01, -1.1D-08, r^2= 4.1D+00
   Bfn.  Coefficient  Atom+Function         Bfn.  Coefficient  Atom+Function  
  ----- ------------  ---------------      ----- ------------  ---------------
   148      0.159329   4 C  py              145      0.138872   4 C  py        
   324     -0.126833   9 H  s                55      0.105634   2 C  px        
   240     -0.104937   6 C  py              323     -0.100397   9 H  s         
   237     -0.096131   6 C  py              278     -0.094649   7 H  s         
   193     -0.094133   5 C  px              370     -0.094298  11 H  s         
 
 Vector   13  Occ=1.000000D+00  E=-4.645600D-01
              MO Center= -6.1D-03,  1.0D-01, -1.5D-10, r^2= 2.7D+00
   Bfn.  Coefficient  Atom+Function         Bfn.  Coefficient  Atom+Function  
  ----- ------------  ---------------      ----- ------------  ---------------
     9      0.188893   1 C  px                6      0.175289   1 C  px        
   147      0.172366   4 C  px              144      0.159057   4 C  px        
   239     -0.135988   6 C  px              194     -0.133925   5 C  py        
    56     -0.131362   2 C  py               55     -0.122359   2 C  px        
   102      0.121738   3 C  py              191     -0.120746   5 C  py        
 
 Vector   14  Occ=1.000000D+00  E=-4.631674D-01
              MO Center=  1.4D-02, -1.6D-01, -4.2D-08, r^2= 4.8D+00
   Bfn.  Coefficient  Atom+Function         Bfn.  Coefficient  Atom+Function  
  ----- ------------  ---------------      ----- ------------  ---------------
     2      0.176550   1 C  s               301      0.137185   8 H  s         
   347      0.136376  10 H  s               140     -0.129351   4 C  s         
   193      0.126264   5 C  px              101     -0.120460   3 C  px        
   196      0.119493   5 C  px              104     -0.118107   3 C  px        
   188      0.118374   5 C  s               190      0.117301   5 C  px        
 
 Vector   15  Occ=1.000000D+00  E=-4.400084D-01
              MO Center= -8.9D-03,  2.1D-01, -2.5D-08, r^2= 4.0D+00
   Bfn.  Coefficient  Atom+Function         Bfn.  Coefficient  Atom+Function  
  ----- ------------  ---------------      ----- ------------  ---------------
   240      0.144268   6 C  py              102      0.138773   3 C  py        
   237      0.133108   6 C  py              278     -0.131381   7 H  s         
   370      0.131444  11 H  s                55      0.129542   2 C  px        
    99      0.129917   3 C  py               56     -0.128530   2 C  py        
   194     -0.127230   5 C  py              191     -0.120097   5 C  py        
 
 Vector   16  Occ=1.000000D+00  E=-3.990865D-01
              MO Center=  4.7D-02, -7.8D-01, -1.0D-08, r^2= 3.3D+00
   Bfn.  Coefficient  Atom+Function         Bfn.  Coefficient  Atom+Function  
  ----- ------------  ---------------      ----- ------------  ---------------
   148      0.233579   4 C  py              145      0.209211   4 C  py        
   324     -0.198463   9 H  s               151      0.172814   4 C  py        
   323     -0.154004   9 H  s                10      0.138488   1 C  py        
    13      0.120890   1 C  py              240      0.115035   6 C  py        
    56      0.109772   2 C  py                7      0.107817   1 C  py        
 
 Vector   17  Occ=1.000000D+00  E=-3.837148D-01
              MO Center= -1.1D-02,  1.2D-01, -5.8D-08, r^2= 2.7D+00
   Bfn.  Coefficient  Atom+Function         Bfn.  Coefficient  Atom+Function  
  ----- ------------  ---------------      ----- ------------  ---------------
    11      0.173071   1 C  pz               57      0.156965   2 C  pz        
   241      0.156356   6 C  pz              103      0.152372   3 C  pz        
   195      0.151713   5 C  pz              149      0.146145   4 C  pz        
     8      0.136567   1 C  pz               54      0.126196   2 C  pz        
   238      0.125691   6 C  pz              100      0.121885   3 C  pz        
 
 Vector   18  Occ=1.000000D+00  E=-3.660099D-01
              MO Center=  7.3D-03, -1.4D-01, -2.8D-08, r^2= 4.1D+00
   Bfn.  Coefficient  Atom+Function         Bfn.  Coefficient  Atom+Function  
  ----- ------------  ---------------      ----- ------------  ---------------
   147     -0.169412   4 C  px              101      0.165224   3 C  px        
   193      0.164967   5 C  px              144     -0.159930   4 C  px        
     9      0.149314   1 C  px               98      0.149539   3 C  px        
   190      0.149060   5 C  px                6      0.141559   1 C  px        
   196      0.135371   5 C  px              104      0.133704   3 C  px        
 
 Vector   19  Occ=1.000000D+00  E=-2.685054D-01
              MO Center= -2.9D-03, -1.7D-02,  7.9D-08, r^2= 3.0D+00
   Bfn.  Coefficient  Atom+Function         Bfn.  Coefficient  Atom+Function  
  ----- ------------  ---------------      ----- ------------  ---------------
    11      0.244260   1 C  pz              149     -0.238766   4 C  pz        
     8      0.192151   1 C  pz              146     -0.190831   4 C  pz        
    14      0.175540   1 C  pz              152     -0.171831   4 C  pz        
   103     -0.137477   3 C  pz              241      0.126568   6 C  pz        
   195     -0.114473   5 C  pz              100     -0.109883   3 C  pz        
 
 Vector   20  Occ=1.000000D+00  E=-2.679129D-01
              MO Center=  3.1D-03,  6.4D-02,  2.8D-07, r^2= 3.1D+00
   Bfn.  Coefficient  Atom+Function         Bfn.  Coefficient  Atom+Function  
  ----- ------------  ---------------      ----- ------------  ---------------
   195     -0.213897   5 C  pz               57      0.210339   2 C  pz        
   103      0.199373   3 C  pz              241     -0.197751   6 C  pz        
   192     -0.170461   5 C  pz               54      0.168375   2 C  pz        
   100      0.158882   3 C  pz              238     -0.158324   6 C  pz        
    60      0.154951   2 C  pz              198     -0.154508   5 C  pz        
 
 Vector   21  Occ=1.000000D+00  E=-2.483383D-01
              MO Center= -8.2D-02,  1.3D+00,  8.3D-08, r^2= 2.3D+00
   Bfn.  Coefficient  Atom+Function         Bfn.  Coefficient  Atom+Function  
  ----- ------------  ---------------      ----- ------------  ---------------
    10      0.385909   1 C  py               13      0.337716   1 C  py        
     5      0.335461   1 C  s                 7      0.299332   1 C  py        
     4      0.279441   1 C  s                 2      0.138440   1 C  s         
   243     -0.136049   6 C  py               59     -0.134200   2 C  py        
   102      0.112318   3 C  py              194      0.112314   5 C  py        
 
 Vector   22  Occ=0.000000D+00  E=-2.604985D-02
              MO Center= -1.5D-03,  6.5D-02, -9.6D-07, r^2= 4.3D+00
   Bfn.  Coefficient  Atom+Function         Bfn.  Coefficient  Atom+Function  
  ----- ------------  ---------------      ----- ------------  ---------------
   201      0.321681   5 C  pz              109     -0.318866   3 C  pz        
    63      0.314940   2 C  pz              247     -0.313234   6 C  pz        
    60      0.226947   2 C  pz              244     -0.226441   6 C  pz        
   198      0.225290   5 C  pz              106     -0.222683   3 C  pz        
    57      0.219083   2 C  pz              195      0.218001   5 C  pz        
 
 Vector   23  Occ=0.000000D+00  E=-1.860909D-02
              MO Center=  3.6D-03, -4.7D-02, -4.1D-06, r^2= 4.3D+00
   Bfn.  Coefficient  Atom+Function         Bfn.  Coefficient  Atom+Function  
  ----- ------------  ---------------      ----- ------------  ---------------
   155      0.439246   4 C  pz               17      0.373945   1 C  pz        
   152      0.273682   4 C  pz               11      0.259176   1 C  pz        
   149      0.250588   4 C  pz               14      0.240799   1 C  pz        
   109     -0.228499   3 C  pz              201     -0.224376   5 C  pz        
     8      0.200876   1 C  pz              247     -0.200082   6 C  pz        
 
 Vector   24  Occ=0.000000D+00  E=-1.011646D-02
              MO Center=  4.9D-02, -9.6D-01, -1.8D-06, r^2= 2.0D+01
   Bfn.  Coefficient  Atom+Function         Bfn.  Coefficient  Atom+Function  
  ----- ------------  ---------------      ----- ------------  ---------------
     5      1.445694   1 C  s               279     -0.974380   7 H  s         
   371     -0.978264  11 H  s               326     -0.741933   9 H  s         
   303     -0.732536   8 H  s               349     -0.728136  10 H  s         
   302     -0.649375   8 H  s               348     -0.650840  10 H  s         
   325     -0.588091   9 H  s               235      0.565065   6 C  s         
 
 Vector   25  Occ=0.000000D+00  E= 4.379228D-03
              MO Center=  2.5D-02, -2.6D-01, -7.8D-06, r^2= 2.7D+01
   Bfn.  Coefficient  Atom+Function         Bfn.  Coefficient  Atom+Function  
  ----- ------------  ---------------      ----- ------------  ---------------
    51      2.740487   2 C  s               235     -2.721362   6 C  s         
    97      2.676019   3 C  s               189     -2.669201   5 C  s         
   303      1.994707   8 H  s               349     -1.999328  10 H  s         
    15      1.866539   1 C  px              153      1.807267   4 C  px        
   280      1.538460   7 H  s               372     -1.540287  11 H  s         
 
 Vector   26  Occ=0.000000D+00  E= 8.725567D-03
              MO Center=  6.8D-03, -7.3D-02,  6.0D-05, r^2= 2.7D+01
   Bfn.  Coefficient  Atom+Function         Bfn.  Coefficient  Atom+Function  
  ----- ------------  ---------------      ----- ------------  ---------------
   143      6.244243   4 C  s                51     -4.008066   2 C  s         
   235     -4.009829   6 C  s               326      2.932658   9 H  s         
     5      2.588534   1 C  s               280     -2.385484   7 H  s         
   372     -2.390214  11 H  s               154      1.947909   4 C  py        
   246      1.942369   6 C  py               62      1.821307   2 C  py        
 
 Vector   27  Occ=0.000000D+00  E= 2.670513D-02
              MO Center= -8.6D-03,  2.4D-01, -1.5D-05, r^2= 3.1D+01
   Bfn.  Coefficient  Atom+Function         Bfn.  Coefficient  Atom+Function  
  ----- ------------  ---------------      ----- ------------  ---------------
   280      3.932457   7 H  s               372     -3.930785  11 H  s         
    51      3.656833   2 C  s               235     -3.656252   6 C  s         
   349      3.611384  10 H  s               303     -3.591633   8 H  s         
    61      2.222488   2 C  px               97     -2.187420   3 C  s         
   189      2.192821   5 C  s               199     -2.045227   5 C  px        
 
 Vector   28  Occ=0.000000D+00  E= 3.221494D-02
              MO Center=  3.1D-02, -6.2D-01, -1.1D-04, r^2= 2.9D+01
   Bfn.  Coefficient  Atom+Function         Bfn.  Coefficient  Atom+Function  
  ----- ------------  ---------------      ----- ------------  ---------------
     5      6.396385   1 C  s               326     -4.997088   9 H  s         
   303      3.743890   8 H  s               349      3.708264  10 H  s         
    97     -2.182123   3 C  s               154     -2.175924   4 C  py        
   189     -2.176094   5 C  s               199     -1.637056   5 C  px        
   245      1.623360   6 C  px               61     -1.591896   2 C  px        
 
 Vector   29  Occ=0.000000D+00  E= 4.329294D-02
              MO Center=  1.1D-02, -2.2D-01,  8.1D-06, r^2= 1.3D+01
   Bfn.  Coefficient  Atom+Function         Bfn.  Coefficient  Atom+Function  
  ----- ------------  ---------------      ----- ------------  ---------------
   155      0.598947   4 C  pz               63      0.576860   2 C  pz        
   247      0.575298   6 C  pz               17     -0.260283   1 C  pz        
    60     -0.154778   2 C  pz              244     -0.155398   6 C  pz        
   289     -0.123540   7 H  pz              381     -0.123579  11 H  pz        
   259      0.119893   6 C  d -1             77      0.109839   2 C  d  1      
 
 Vector   30  Occ=0.000000D+00  E= 5.495533D-02
              MO Center=  3.9D-03, -1.5D-01, -3.9D-05, r^2= 1.5D+01
   Bfn.  Coefficient  Atom+Function         Bfn.  Coefficient  Atom+Function  
  ----- ------------  ---------------      ----- ------------  ---------------
     5     10.705058   1 C  s               143      5.281569   4 C  s         
    51     -4.481743   2 C  s               235     -4.491089   6 C  s         
   303     -2.816709   8 H  s               349     -2.782129  10 H  s         
   326      2.058377   9 H  s               199      1.994315   5 C  px        
    97     -1.979371   3 C  s               189     -1.920975   5 C  s         
 
 Vector   31  Occ=0.000000D+00  E= 6.334896D-02
              MO Center= -4.0D-02,  6.5D-01, -1.1D-04, r^2= 2.8D+01
   Bfn.  Coefficient  Atom+Function         Bfn.  Coefficient  Atom+Function  
  ----- ------------  ---------------      ----- ------------  ---------------
     5     24.382412   1 C  s                51     -9.838046   2 C  s         
   235     -9.876802   6 C  s               143      7.628355   4 C  s         
    97     -6.512944   3 C  s               189     -6.509284   5 C  s         
   326      5.866593   9 H  s               154      4.773112   4 C  py        
   303     -4.692427   8 H  s               349     -4.672850  10 H  s         
 
 Vector   32  Occ=0.000000D+00  E= 6.574528D-02
              MO Center=  3.4D-03, -2.3D-02,  5.3D-04, r^2= 1.8D+01
   Bfn.  Coefficient  Atom+Function         Bfn.  Coefficient  Atom+Function  
  ----- ------------  ---------------      ----- ------------  ---------------
   109      0.977321   3 C  pz              201     -0.972725   5 C  pz        
    63      0.770326   2 C  pz              247     -0.773276   6 C  pz        
   169     -0.676844   4 C  d  1             31     -0.583209   1 C  d  1      
   198     -0.492889   5 C  pz               60      0.489946   2 C  pz        
   106      0.491145   3 C  pz              244     -0.487421   6 C  pz        
 
 Vector   33  Occ=0.000000D+00  E= 6.825470D-02
              MO Center= -1.2D-02,  1.9D-01, -2.8D-04, r^2= 1.8D+01
   Bfn.  Coefficient  Atom+Function         Bfn.  Coefficient  Atom+Function  
  ----- ------------  ---------------      ----- ------------  ---------------
    63      1.026579   2 C  pz              247      1.023243   6 C  pz        
   109     -0.809405   3 C  pz              201     -0.810061   5 C  pz        
   155     -0.754012   4 C  pz               14      0.629137   1 C  pz        
   152     -0.618246   4 C  pz               17      0.456732   1 C  pz        
   213     -0.443829   5 C  d -1            121     -0.410814   3 C  d -1      
 
 Vector   34  Occ=0.000000D+00  E= 7.645414D-02
              MO Center= -4.4D-02, -1.6D-01, -1.2D-04, r^2= 3.4D+01
   Bfn.  Coefficient  Atom+Function         Bfn.  Coefficient  Atom+Function  
  ----- ------------  ---------------      ----- ------------  ---------------
   235    -13.949538   6 C  s                51     13.780376   2 C  s         
    97     12.404680   3 C  s               189    -12.413717   5 C  s         
    15      7.677915   1 C  px              153      7.705921   4 C  px        
   107      4.748138   3 C  px              303      4.710451   8 H  s         
   349     -4.670375  10 H  s               199      4.473850   5 C  px        
 
 Vector   35  Occ=0.000000D+00  E= 7.791272D-02
              MO Center=  2.3D-01, -3.3D+00,  1.3D-04, r^2= 2.1D+01
   Bfn.  Coefficient  Atom+Function         Bfn.  Coefficient  Atom+Function  
  ----- ------------  ---------------      ----- ------------  ---------------
   143     18.275065   4 C  s                51    -13.601174   2 C  s         
   235    -13.286967   6 C  s               326      7.028926   9 H  s         
   246      5.724911   6 C  py               62      5.600757   2 C  py        
   200      5.394542   5 C  py              154      5.272065   4 C  py        
   108      5.030236   3 C  py              279      4.202374   7 H  s         
 
 Vector   36  Occ=0.000000D+00  E= 8.155048D-02
              MO Center= -5.4D-02,  1.4D+00,  7.8D-05, r^2= 2.8D+01
   Bfn.  Coefficient  Atom+Function         Bfn.  Coefficient  Atom+Function  
  ----- ------------  ---------------      ----- ------------  ---------------
   143     20.700444   4 C  s               235     -9.035081   6 C  s         
    51     -8.840903   2 C  s               246      5.282673   6 C  py        
    62      5.145323   2 C  py              325     -4.964987   9 H  s         
   372     -4.603398  11 H  s               200      4.535246   5 C  py        
   280     -4.524351   7 H  s               326      4.496648   9 H  s         
 
 Vector   37  Occ=0.000000D+00  E= 8.316935D-02
              MO Center=  4.1D-02, -7.3D-01, -1.0D-05, r^2= 2.2D+01
   Bfn.  Coefficient  Atom+Function         Bfn.  Coefficient  Atom+Function  
  ----- ------------  ---------------      ----- ------------  ---------------
    97      4.959259   3 C  s               189     -4.929306   5 C  s         
    51     -3.188862   2 C  s               235      3.072222   6 C  s         
   108      2.822349   3 C  py              303      2.805296   8 H  s         
   349     -2.805294  10 H  s               200     -2.652413   5 C  py        
   153      2.603064   4 C  px               96      2.072351   3 C  s         
 
 Vector   38  Occ=0.000000D+00  E= 9.540352D-02
              MO Center= -4.3D-02,  8.8D-01,  1.2D-05, r^2= 3.1D+01
   Bfn.  Coefficient  Atom+Function         Bfn.  Coefficient  Atom+Function  
  ----- ------------  ---------------      ----- ------------  ---------------
    51     17.707035   2 C  s               235    -17.648675   6 C  s         
   280      7.216800   7 H  s               372     -7.216440  11 H  s         
    97     -6.889739   3 C  s               189      6.922502   5 C  s         
   108     -6.455471   3 C  py              349      6.225914  10 H  s         
   303     -6.176397   8 H  s               200      5.917790   5 C  py        
 
 Vector   39  Occ=0.000000D+00  E= 1.017988D-01
              MO Center= -1.4D-03,  1.1D-01, -3.3D-04, r^2= 1.9D+01
   Bfn.  Coefficient  Atom+Function         Bfn.  Coefficient  Atom+Function  
  ----- ------------  ---------------      ----- ------------  ---------------
    51     13.760626   2 C  s               235    -13.718030   6 C  s         
    97     10.889447   3 C  s               189    -10.874263   5 C  s         
    15     10.000082   1 C  px              153      9.715873   4 C  px        
   246     -6.105286   6 C  py              108     -6.042671   3 C  py        
   200      5.976305   5 C  py               62      5.901182   2 C  py        
 
 Vector   40  Occ=0.000000D+00  E= 1.064727D-01
              MO Center= -1.5D-02,  1.3D-01, -5.7D-04, r^2= 2.1D+01
   Bfn.  Coefficient  Atom+Function         Bfn.  Coefficient  Atom+Function  
  ----- ------------  ---------------      ----- ------------  ---------------
   143     18.281272   4 C  s                51     -9.966167   2 C  s         
   235     -9.913536   6 C  s                 5     -9.463144   1 C  s         
   107     -8.762665   3 C  px              199      7.969774   5 C  px        
   245     -7.038913   6 C  px              200      6.743706   5 C  py        
    61      6.500006   2 C  px              108      5.660716   3 C  py        
 
 Vector   41  Occ=0.000000D+00  E= 1.082002D-01
              MO Center= -9.6D-03,  1.6D-01, -9.3D-05, r^2= 2.2D+01
   Bfn.  Coefficient  Atom+Function         Bfn.  Coefficient  Atom+Function  
  ----- ------------  ---------------      ----- ------------  ---------------
    63      3.404829   2 C  pz              247     -3.377303   6 C  pz        
   109     -3.355742   3 C  pz              201      3.371856   5 C  pz        
    60      0.698565   2 C  pz              244     -0.694258   6 C  pz        
   198      0.639409   5 C  pz              106     -0.634959   3 C  pz        
    77     -0.381509   2 C  d  1            215      0.364236   5 C  d  1      
 
 Vector   42  Occ=0.000000D+00  E= 1.089657D-01
              MO Center=  2.7D-02, -4.7D-01,  2.2D-03, r^2= 2.1D+01
   Bfn.  Coefficient  Atom+Function         Bfn.  Coefficient  Atom+Function  
  ----- ------------  ---------------      ----- ------------  ---------------
   155      5.322630   4 C  pz              109     -3.464609   3 C  pz        
   201     -3.425562   5 C  pz               17      2.509071   1 C  pz        
   152      0.982969   4 C  pz              106     -0.607071   3 C  pz        
   198     -0.600437   5 C  pz              167      0.569453   4 C  d -1      
    14      0.504956   1 C  pz              247     -0.491834   6 C  pz        
 
 Vector   43  Occ=0.000000D+00  E= 1.094951D-01
              MO Center=  1.3D-02, -4.5D-01, -1.1D-03, r^2= 2.7D+01
   Bfn.  Coefficient  Atom+Function         Bfn.  Coefficient  Atom+Function  
  ----- ------------  ---------------      ----- ------------  ---------------
   326      7.670227   9 H  s               154      7.052229   4 C  py        
   303     -6.510925   8 H  s               349     -6.445439  10 H  s         
   143     -5.596891   4 C  s               108     -4.415668   3 C  py        
    62     -4.191332   2 C  py              200     -4.196451   5 C  py        
   246     -4.093921   6 C  py                4      3.926751   1 C  s         
 
 Vector   44  Occ=0.000000D+00  E= 1.177966D-01
              MO Center= -3.8D-02,  6.5D-01, -4.2D-04, r^2= 1.4D+01
   Bfn.  Coefficient  Atom+Function         Bfn.  Coefficient  Atom+Function  
  ----- ------------  ---------------      ----- ------------  ---------------
    17      6.877389   1 C  pz               63     -6.019323   2 C  pz        
   247     -6.021950   6 C  pz              109      5.049058   3 C  pz        
   201      5.050303   5 C  pz              155     -4.819889   4 C  pz        
    14      1.235306   1 C  pz               60     -1.019497   2 C  pz        
   244     -1.020362   6 C  pz              106      0.891280   3 C  pz        
 
 Vector   45  Occ=0.000000D+00  E= 1.264043D-01
              MO Center= -1.5D-02,  2.9D-01, -2.3D-05, r^2= 2.5D+01
   Bfn.  Coefficient  Atom+Function         Bfn.  Coefficient  Atom+Function  
  ----- ------------  ---------------      ----- ------------  ---------------
    51      7.588388   2 C  s               235     -7.590743   6 C  s         
   107      7.203146   3 C  px              199      7.132526   5 C  px        
   245     -7.035778   6 C  px               61     -6.931682   2 C  px        
    15      6.447643   1 C  px               97     -6.188984   3 C  s         
   189      6.194883   5 C  s               153     -5.820474   4 C  px        
 
 Vector   46  Occ=0.000000D+00  E= 1.274473D-01
              MO Center= -1.7D-02,  1.9D-01,  1.3D-04, r^2= 2.6D+01
   Bfn.  Coefficient  Atom+Function         Bfn.  Coefficient  Atom+Function  
  ----- ------------  ---------------      ----- ------------  ---------------
   154     -8.033853   4 C  py               16      7.426440   1 C  py        
   108      6.903087   3 C  py               62     -6.596941   2 C  py        
   200      6.564834   5 C  py              246     -6.366088   6 C  py        
   326     -4.050248   9 H  s                 5      3.560488   1 C  s         
   303      3.183056   8 H  s               349      3.146365  10 H  s         
 
 Vector   47  Occ=0.000000D+00  E= 1.609449D-01
              MO Center= -1.2D-02,  1.4D-01,  9.5D-05, r^2= 1.7D+01
   Bfn.  Coefficient  Atom+Function         Bfn.  Coefficient  Atom+Function  
  ----- ------------  ---------------      ----- ------------  ---------------
    17      8.196511   1 C  pz               63     -8.017781   2 C  pz        
   247     -7.996237   6 C  pz              155     -7.858061   4 C  pz        
   109      7.784736   3 C  pz              201      7.760835   5 C  pz        
    60     -1.195396   2 C  pz              106      1.195219   3 C  pz        
   198      1.189991   5 C  pz              244     -1.190134   6 C  pz        
 
 Vector   48  Occ=0.000000D+00  E= 1.660219D-01
              MO Center= -8.8D-02,  1.4D+00,  3.2D-04, r^2= 2.2D+01
   Bfn.  Coefficient  Atom+Function         Bfn.  Coefficient  Atom+Function  
  ----- ------------  ---------------      ----- ------------  ---------------
     5     59.205292   1 C  s               235    -26.082187   6 C  s         
    51    -25.888252   2 C  s               143     25.973324   4 C  s         
    97    -14.434424   3 C  s               189    -14.389889   5 C  s         
   154      7.430912   4 C  py              245      6.808653   6 C  px        
    61     -6.402600   2 C  px              326      6.155535   9 H  s         
 
 Vector   49  Occ=0.000000D+00  E= 1.754209D-01
              MO Center=  2.3D-02, -3.9D-01, -1.7D-04, r^2= 1.1D+01
   Bfn.  Coefficient  Atom+Function         Bfn.  Coefficient  Atom+Function  
  ----- ------------  ---------------      ----- ------------  ---------------
   335      1.104694   9 H  pz              312      1.080293   8 H  pz        
   358      1.078474  10 H  pz              289      0.973583   7 H  pz        
   381      0.972001  11 H  pz               17      0.953061   1 C  pz        
    63     -0.878998   2 C  pz              247     -0.878406   6 C  pz        
   106     -0.843270   3 C  pz              198     -0.844764   5 C  pz        
 
 Vector   50  Occ=0.000000D+00  E= 1.864139D-01
              MO Center=  3.9D-02, -5.5D-01,  1.0D-04, r^2= 1.5D+01
   Bfn.  Coefficient  Atom+Function         Bfn.  Coefficient  Atom+Function  
  ----- ------------  ---------------      ----- ------------  ---------------
     5     15.535563   1 C  s               189     -7.303214   5 C  s         
    97     -7.251102   3 C  s                51     -4.569900   2 C  s         
   235     -4.427762   6 C  s               325      4.419966   9 H  s         
    62     -4.020856   2 C  py              154      3.988991   4 C  py        
   246     -3.842485   6 C  py              302      3.294870   8 H  s         
 
 Vector   51  Occ=0.000000D+00  E= 1.980371D-01
              MO Center= -8.8D-02,  4.6D-01,  3.6D-04, r^2= 2.3D+01
   Bfn.  Coefficient  Atom+Function         Bfn.  Coefficient  Atom+Function  
  ----- ------------  ---------------      ----- ------------  ---------------
    51     45.926645   2 C  s               235    -43.202035   6 C  s         
   189    -25.540024   5 C  s                97     24.829866   3 C  s         
    15     18.471186   1 C  px              153     17.069433   4 C  px        
   348     14.144952  10 H  s               302    -13.859137   8 H  s         
   108     -9.002825   3 C  py              200      8.665790   5 C  py        
 
 Vector   52  Occ=0.000000D+00  E= 1.984367D-01
              MO Center=  1.0D-01, -7.3D-01, -5.0D-04, r^2= 2.3D+01
   Bfn.  Coefficient  Atom+Function         Bfn.  Coefficient  Atom+Function  
  ----- ------------  ---------------      ----- ------------  ---------------
   143     61.279980   4 C  s               235    -36.307721   6 C  s         
    51    -32.712978   2 C  s               325    -16.854869   9 H  s         
    62     14.784824   2 C  py              246     14.403130   6 C  py        
   200     14.213914   5 C  py              108     12.123261   3 C  py        
     5    -11.577313   1 C  s               371     11.500135  11 H  s         
 
 Vector   53  Occ=0.000000D+00  E= 2.154162D-01
              MO Center=  8.5D-02, -1.4D+00, -3.1D-05, r^2= 1.5D+01
   Bfn.  Coefficient  Atom+Function         Bfn.  Coefficient  Atom+Function  
  ----- ------------  ---------------      ----- ------------  ---------------
    97     13.937526   3 C  s               189    -13.745580   5 C  s         
    96      6.654271   3 C  s               188     -6.419638   5 C  s         
   153      6.331603   4 C  px              279     -5.311109   7 H  s         
   371      4.948985  11 H  s               349     -4.792246  10 H  s         
   246     -4.757185   6 C  py              303      4.652145   8 H  s         
 
 Vector   54  Occ=0.000000D+00  E= 2.182539D-01
              MO Center=  5.5D-02, -2.9D-01, -2.1D-04, r^2= 1.5D+01
   Bfn.  Coefficient  Atom+Function         Bfn.  Coefficient  Atom+Function  
  ----- ------------  ---------------      ----- ------------  ---------------
   143     25.630020   4 C  s                51    -19.444508   2 C  s         
     5     15.912743   1 C  s               235    -15.925633   6 C  s         
    16     -6.452884   1 C  py              325     -6.008811   9 H  s         
   246      4.908605   6 C  py               62      4.589249   2 C  py        
   371      3.912120  11 H  s               189     -3.717676   5 C  s         
 
 Vector   55  Occ=0.000000D+00  E= 2.191090D-01
              MO Center= -1.5D-02, -8.5D-02,  1.1D-03, r^2= 1.5D+01
   Bfn.  Coefficient  Atom+Function         Bfn.  Coefficient  Atom+Function  
  ----- ------------  ---------------      ----- ------------  ---------------
   235     21.189182   6 C  s                51    -18.257317   2 C  s         
   200     -8.351516   5 C  py              108      8.201808   3 C  py        
    15     -7.530448   1 C  px              302      6.891286   8 H  s         
   348     -6.923061  10 H  s               153     -6.292391   4 C  px        
    62     -4.272861   2 C  py              246      3.641035   6 C  py        
 
 Vector   56  Occ=0.000000D+00  E= 2.301220D-01
              MO Center=  2.4D-02,  2.9D-01,  1.9D-03, r^2= 1.8D+01
   Bfn.  Coefficient  Atom+Function         Bfn.  Coefficient  Atom+Function  
  ----- ------------  ---------------      ----- ------------  ---------------
   199      4.998212   5 C  px              107      4.569246   3 C  px        
   153     -3.566155   4 C  px              234      3.291591   6 C  s         
    50     -3.247015   2 C  s               349     -3.235764  10 H  s         
   303      3.087763   8 H  s                15     -2.630268   1 C  px        
   108      2.400295   3 C  py               59      1.941605   2 C  py        
 
 Vector   57  Occ=0.000000D+00  E= 2.311945D-01
              MO Center= -6.4D-04,  2.1D-03, -3.8D-03, r^2= 1.6D+01
   Bfn.  Coefficient  Atom+Function         Bfn.  Coefficient  Atom+Function  
  ----- ------------  ---------------      ----- ------------  ---------------
   106      2.140005   3 C  pz              198     -2.143914   5 C  pz        
    60      2.047281   2 C  pz              244     -2.048456   6 C  pz        
   312     -1.817999   8 H  pz              358      1.818080  10 H  pz        
   289     -1.720247   7 H  pz              381      1.721124  11 H  pz        
   169     -1.379197   4 C  d  1             31     -1.247520   1 C  d  1      
 
 Vector   58  Occ=0.000000D+00  E= 2.354162D-01
              MO Center= -5.9D-02,  2.1D-01,  4.4D-04, r^2= 1.6D+01
   Bfn.  Coefficient  Atom+Function         Bfn.  Coefficient  Atom+Function  
  ----- ------------  ---------------      ----- ------------  ---------------
   143     14.935757   4 C  s                51    -11.199607   2 C  s         
   235     -9.736924   6 C  s               107     -8.213646   3 C  px        
   199      7.747550   5 C  px               61      5.417820   2 C  px        
   245     -5.306213   6 C  px              349     -4.463157  10 H  s         
   303     -4.371745   8 H  s                 5      4.061078   1 C  s         
 
 Vector   59  Occ=0.000000D+00  E= 2.365060D-01
              MO Center=  5.7D-03,  7.4D-02,  1.0D-03, r^2= 1.7D+01
   Bfn.  Coefficient  Atom+Function         Bfn.  Coefficient  Atom+Function  
  ----- ------------  ---------------      ----- ------------  ---------------
    97    -33.133900   3 C  s               189     33.189583   5 C  s         
   235    -31.636148   6 C  s                51     31.393389   2 C  s         
    96    -14.425506   3 C  s               188     14.336242   5 C  s         
   279     10.860218   7 H  s               371    -10.725441  11 H  s         
   302    -10.655924   8 H  s               348     10.638883  10 H  s         
 
 Vector   60  Occ=0.000000D+00  E= 2.434360D-01
              MO Center=  3.3D-03, -4.4D-02, -4.6D-04, r^2= 1.5D+01
   Bfn.  Coefficient  Atom+Function         Bfn.  Coefficient  Atom+Function  
  ----- ------------  ---------------      ----- ------------  ---------------
   152      3.414973   4 C  pz               14     -3.023845   1 C  pz        
   289      2.171161   7 H  pz              381      2.170265  11 H  pz        
   335     -2.124886   9 H  pz               77     -1.993960   2 C  d  1      
   261      1.991869   6 C  d  1             63     -1.599499   2 C  pz        
   247     -1.598506   6 C  pz              155      1.372240   4 C  pz        
 
 Vector   61  Occ=0.000000D+00  E= 2.594928D-01
              MO Center=  2.3D-02, -6.0D-01,  6.4D-05, r^2= 1.7D+01
   Bfn.  Coefficient  Atom+Function         Bfn.  Coefficient  Atom+Function  
  ----- ------------  ---------------      ----- ------------  ---------------
     5      8.730678   1 C  s               108     -6.660746   3 C  py        
   200     -6.051876   5 C  py              303     -5.217962   8 H  s         
   349     -5.149626  10 H  s               199      5.041719   5 C  px        
   197     -4.843594   5 C  py              143     -4.789082   4 C  s         
   105     -4.727230   3 C  py              154      4.373508   4 C  py        
 
 Vector   62  Occ=0.000000D+00  E= 2.620195D-01
              MO Center=  6.5D-02, -1.1D+00, -5.4D-05, r^2= 1.7D+01
   Bfn.  Coefficient  Atom+Function         Bfn.  Coefficient  Atom+Function  
  ----- ------------  ---------------      ----- ------------  ---------------
     5     18.958589   1 C  s               154     15.382215   4 C  py        
   143     15.158122   4 C  s               235    -14.885883   6 C  s         
    51    -14.238840   2 C  s               326      9.182728   9 H  s         
     4      6.020098   1 C  s               108     -4.871277   3 C  py        
    97     -4.820952   3 C  s               189     -4.495197   5 C  s         
 
 Vector   63  Occ=0.000000D+00  E= 2.676665D-01
              MO Center= -2.5D-02,  4.3D-01,  6.4D-05, r^2= 2.0D+01
   Bfn.  Coefficient  Atom+Function         Bfn.  Coefficient  Atom+Function  
  ----- ------------  ---------------      ----- ------------  ---------------
    51     20.434668   2 C  s               235    -19.959012   6 C  s         
   189     11.998674   5 C  s                97    -11.830722   3 C  s         
    61     11.082372   2 C  px              245     10.197437   6 C  px        
   188      8.819857   5 C  s               279      8.817798   7 H  s         
    96     -8.695077   3 C  s               371     -8.714790  11 H  s         
 
 Vector   64  Occ=0.000000D+00  E= 2.747916D-01
              MO Center= -5.6D-03,  2.3D-02,  6.8D-05, r^2= 1.4D+01
   Bfn.  Coefficient  Atom+Function         Bfn.  Coefficient  Atom+Function  
  ----- ------------  ---------------      ----- ------------  ---------------
   143      8.946875   4 C  s                 5      8.696863   1 C  s         
   154      5.765792   4 C  py              371     -5.688841  11 H  s         
   279     -5.620799   7 H  s               302     -4.695414   8 H  s         
   348     -4.604227  10 H  s               325     -4.359729   9 H  s         
    16     -4.032980   1 C  py              246      3.294478   6 C  py        
 
 Vector   65  Occ=0.000000D+00  E= 2.829756D-01
              MO Center= -6.3D-03,  1.8D-01, -2.1D-05, r^2= 1.6D+01
   Bfn.  Coefficient  Atom+Function         Bfn.  Coefficient  Atom+Function  
  ----- ------------  ---------------      ----- ------------  ---------------
    12      9.527362   1 C  px               97      8.908384   3 C  s         
   189     -8.891031   5 C  s               348     -8.143542  10 H  s         
   235      8.058722   6 C  s               302      8.052308   8 H  s         
    51     -7.978805   2 C  s               199      7.645896   5 C  px        
   107      7.153260   3 C  px              150      6.191842   4 C  px        
 
 Vector   66  Occ=0.000000D+00  E= 2.954306D-01
              MO Center=  1.7D-03,  5.0D-02, -1.8D-05, r^2= 1.6D+01
   Bfn.  Coefficient  Atom+Function         Bfn.  Coefficient  Atom+Function  
  ----- ------------  ---------------      ----- ------------  ---------------
    63      3.197702   2 C  pz              201      3.199675   5 C  pz        
   247     -3.204528   6 C  pz              109     -3.177760   3 C  pz        
   381      2.279217  11 H  pz               60      2.264316   2 C  pz        
   289     -2.275267   7 H  pz              358     -2.269205  10 H  pz        
   244     -2.248951   6 C  pz              312      2.258020   8 H  pz        
 
 Vector   67  Occ=0.000000D+00  E= 2.962821D-01
              MO Center= -7.0D-02,  9.6D-01,  4.1D-04, r^2= 1.4D+01
   Bfn.  Coefficient  Atom+Function         Bfn.  Coefficient  Atom+Function  
  ----- ------------  ---------------      ----- ------------  ---------------
     4     10.430971   1 C  s                59     -5.760598   2 C  py        
   243     -5.617806   6 C  py                5      5.528754   1 C  s         
   105     -5.522437   3 C  py              197     -5.153992   5 C  py        
    16      4.272723   1 C  py              279     -4.201906   7 H  s         
   371     -4.170707  11 H  s                62     -3.939458   2 C  py        
 
 Vector   68  Occ=0.000000D+00  E= 3.080561D-01
              MO Center= -3.9D-03, -2.7D-01, -4.6D-04, r^2= 1.5D+01
   Bfn.  Coefficient  Atom+Function         Bfn.  Coefficient  Atom+Function  
  ----- ------------  ---------------      ----- ------------  ---------------
   155      5.180584   4 C  pz               14      4.365565   1 C  pz        
   109     -3.753391   3 C  pz              201     -3.732222   5 C  pz        
   335     -2.709254   9 H  pz               60     -2.050447   2 C  pz        
   244     -2.049183   6 C  pz              152      1.850757   4 C  pz        
    17      1.837787   1 C  pz               29     -1.721388   1 C  d -1      
 
 Vector   69  Occ=0.000000D+00  E= 3.150397D-01
              MO Center=  4.0D-02, -7.1D-02,  2.0D-05, r^2= 9.1D+00
   Bfn.  Coefficient  Atom+Function         Bfn.  Coefficient  Atom+Function  
  ----- ------------  ---------------      ----- ------------  ---------------
   261      1.275895   6 C  d  1             77      1.111682   2 C  d  1      
   169     -1.086225   4 C  d  1             75     -1.023484   2 C  d -1      
   259      0.870709   6 C  d -1            381      0.730148  11 H  pz        
   289     -0.713939   7 H  pz               31      0.636929   1 C  d  1      
   244      0.363887   6 C  pz               60     -0.308801   2 C  pz        
 
 Vector   70  Occ=0.000000D+00  E= 3.284611D-01
              MO Center=  4.6D-02, -6.2D-01,  7.7D-05, r^2= 1.5D+01
   Bfn.  Coefficient  Atom+Function         Bfn.  Coefficient  Atom+Function  
  ----- ------------  ---------------      ----- ------------  ---------------
   142     12.143575   4 C  s                96      8.695165   3 C  s         
   188      8.731952   5 C  s               151     -6.832185   4 C  py        
   325     -5.844648   9 H  s                 4     -5.234896   1 C  s         
   334     -5.008609   9 H  py                5      4.901725   1 C  s         
   348     -4.490587  10 H  s               302     -4.284732   8 H  s         
 
 Vector   71  Occ=0.000000D+00  E= 3.347401D-01
              MO Center= -3.4D-03,  2.5D-02,  1.8D-04, r^2= 7.7D+00
   Bfn.  Coefficient  Atom+Function         Bfn.  Coefficient  Atom+Function  
  ----- ------------  ---------------      ----- ------------  ---------------
   289      2.043106   7 H  pz              381      2.022663  11 H  pz        
   335      1.841856   9 H  pz               14     -1.757796   1 C  pz        
   155     -1.721821   4 C  pz               63     -1.567158   2 C  pz        
   247     -1.567303   6 C  pz               77     -1.519308   2 C  d  1      
   261      1.393320   6 C  d  1            198     -1.285869   5 C  pz        
 
 Vector   72  Occ=0.000000D+00  E= 3.433164D-01
              MO Center=  3.0D-02, -3.8D-01, -4.4D-03, r^2= 1.2D+01
   Bfn.  Coefficient  Atom+Function         Bfn.  Coefficient  Atom+Function  
  ----- ------------  ---------------      ----- ------------  ---------------
   169      3.293996   4 C  d  1             31      2.703631   1 C  d  1      
   312     -2.473010   8 H  pz              358      2.479599  10 H  pz        
   123      2.169869   3 C  d  1            215      2.152578   5 C  d  1      
   106     -1.794886   3 C  pz              198      1.799545   5 C  pz        
   381      1.444807  11 H  pz              289     -1.421450   7 H  pz        
 
 Vector   73  Occ=0.000000D+00  E= 3.449219D-01
              MO Center= -2.3D-02,  5.6D-01, -2.1D-03, r^2= 1.2D+01
   Bfn.  Coefficient  Atom+Function         Bfn.  Coefficient  Atom+Function  
  ----- ------------  ---------------      ----- ------------  ---------------
   143     23.692559   4 C  s               325    -13.016623   9 H  s         
    51    -12.063447   2 C  s               279     11.984072   7 H  s         
   371     11.847522  11 H  s               235    -11.438648   6 C  s         
     5     -7.712440   1 C  s               197     -6.925780   5 C  py        
   105     -6.775443   3 C  py              243     -6.077117   6 C  py        
 
 Vector   74  Occ=0.000000D+00  E= 3.478292D-01
              MO Center= -4.1D-03, -1.5D-01,  4.0D-03, r^2= 1.2D+01
   Bfn.  Coefficient  Atom+Function         Bfn.  Coefficient  Atom+Function  
  ----- ------------  ---------------      ----- ------------  ---------------
   235    -21.463559   6 C  s                51     20.885040   2 C  s         
   302    -12.036243   8 H  s               348     11.930382  10 H  s         
    97     11.009064   3 C  s               189    -10.897046   5 C  s         
   371      9.815620  11 H  s               279     -9.704525   7 H  s         
    12     -8.097059   1 C  px              150     -7.023264   4 C  px        
 
 Vector   75  Occ=0.000000D+00  E= 3.481537D-01
              MO Center=  3.6D-02, -5.3D-01,  3.2D-03, r^2= 1.3D+01
   Bfn.  Coefficient  Atom+Function         Bfn.  Coefficient  Atom+Function  
  ----- ------------  ---------------      ----- ------------  ---------------
   155     -3.941963   4 C  pz               17      3.751087   1 C  pz        
   109      3.544846   3 C  pz              201      3.521665   5 C  pz        
    63     -3.431777   2 C  pz              247     -3.411483   6 C  pz        
   152     -3.004377   4 C  pz              213     -2.304156   5 C  d -1      
   381      2.269071  11 H  pz              289      2.254135   7 H  pz        
 
 Vector   76  Occ=0.000000D+00  E= 3.527367D-01
              MO Center=  1.6D-02, -5.2D-01, -1.9D-04, r^2= 1.4D+01
   Bfn.  Coefficient  Atom+Function         Bfn.  Coefficient  Atom+Function  
  ----- ------------  ---------------      ----- ------------  ---------------
    17      6.407495   1 C  pz               63     -5.871218   2 C  pz        
   247     -5.875352   6 C  pz              109      5.140466   3 C  pz        
   201      5.141794   5 C  pz              155     -4.869319   4 C  pz        
   335      3.947648   9 H  pz               14      3.806667   1 C  pz        
   167      3.066138   4 C  d -1            244     -2.705811   6 C  pz        
 
 Vector   77  Occ=0.000000D+00  E= 3.546335D-01
              MO Center= -2.8D-02,  3.2D-01, -6.8D-04, r^2= 1.5D+01
   Bfn.  Coefficient  Atom+Function         Bfn.  Coefficient  Atom+Function  
  ----- ------------  ---------------      ----- ------------  ---------------
     5     31.350716   1 C  s                51    -15.964414   2 C  s         
   143     15.923652   4 C  s               235    -15.550096   6 C  s         
   151    -11.075051   4 C  py              196     -7.512469   5 C  px        
    50      7.364849   2 C  s               234      7.400085   6 C  s         
    13      7.290186   1 C  py              104      7.231238   3 C  px        
 
 Vector   78  Occ=0.000000D+00  E= 3.598959D-01
              MO Center= -5.9D-02,  7.5D-01,  2.3D-04, r^2= 1.3D+01
   Bfn.  Coefficient  Atom+Function         Bfn.  Coefficient  Atom+Function  
  ----- ------------  ---------------      ----- ------------  ---------------
   289      3.416624   7 H  pz              381     -3.393684  11 H  pz        
    60      3.197119   2 C  pz               77     -3.104985   2 C  d  1      
   121     -3.101901   3 C  d -1            244     -3.113945   6 C  pz        
   259      3.014442   6 C  d -1            213      2.770132   5 C  d -1      
   358      2.780784  10 H  pz              106     -2.750621   3 C  pz        
 
 Vector   79  Occ=0.000000D+00  E= 3.685336D-01
              MO Center=  6.8D-02, -5.7D-01, -1.7D-04, r^2= 1.3D+01
   Bfn.  Coefficient  Atom+Function         Bfn.  Coefficient  Atom+Function  
  ----- ------------  ---------------      ----- ------------  ---------------
   188     10.793952   5 C  s                96     10.656709   3 C  s         
   196      8.566468   5 C  px              104     -8.415452   3 C  px        
   142     -7.525782   4 C  s                 5      7.183795   1 C  s         
   212      5.527895   5 C  d -2            258      5.412435   6 C  d -2      
   120     -5.123939   3 C  d -2            242     -5.140497   6 C  px        
 
 Vector   80  Occ=0.000000D+00  E= 3.720837D-01
              MO Center= -2.1D-02, -3.1D-01, -2.1D-04, r^2= 1.3D+01
   Bfn.  Coefficient  Atom+Function         Bfn.  Coefficient  Atom+Function  
  ----- ------------  ---------------      ----- ------------  ---------------
   189      9.946512   5 C  s                97     -9.716084   3 C  s         
   234      9.062324   6 C  s                50     -8.970294   2 C  s         
   279      5.730014   7 H  s               311      5.240876   8 H  py        
   371     -5.218816  11 H  s               235     -5.132486   6 C  s         
   357     -5.125268  10 H  py              212      4.711191   5 C  d -2      
 
 Vector   81  Occ=0.000000D+00  E= 3.819129D-01
              MO Center=  4.0D-02, -5.7D-01, -3.5D-06, r^2= 1.6D+01
   Bfn.  Coefficient  Atom+Function         Bfn.  Coefficient  Atom+Function  
  ----- ------------  ---------------      ----- ------------  ---------------
   166      9.085289   4 C  d -2            333      7.117259   9 H  px        
   150     -6.666675   4 C  px              216     -6.552719   5 C  d  2      
   124      6.116182   3 C  d  2            371     -5.911712  11 H  s         
   279      5.829813   7 H  s               310      5.079813   8 H  px        
   356      5.029454  10 H  px               96     -4.863070   3 C  s         
 
 Vector   82  Occ=0.000000D+00  E= 3.932537D-01
              MO Center= -1.7D-02,  4.6D-01,  1.9D-04, r^2= 1.5D+01
   Bfn.  Coefficient  Atom+Function         Bfn.  Coefficient  Atom+Function  
  ----- ------------  ---------------      ----- ------------  ---------------
    12     12.192661   1 C  px               51    -11.170038   2 C  s         
   235     10.991007   6 C  s                78     -9.092979   2 C  d  2      
   262      8.737559   6 C  d  2             15     -6.840247   1 C  px        
   216      6.693420   5 C  d  2            153     -5.866140   4 C  px        
   379     -5.827698  11 H  px              124     -5.790325   3 C  d  2      
 
 Vector   83  Occ=0.000000D+00  E= 3.960431D-01
              MO Center= -5.4D-02,  8.3D-01,  2.2D-04, r^2= 1.2D+01
   Bfn.  Coefficient  Atom+Function         Bfn.  Coefficient  Atom+Function  
  ----- ------------  ---------------      ----- ------------  ---------------
   152     -7.532817   4 C  pz              106      7.345407   3 C  pz        
   198      7.334149   5 C  pz               60     -6.484366   2 C  pz        
   244     -6.477602   6 C  pz              167     -6.336338   4 C  d -1      
   215      5.127241   5 C  d  1            123     -4.703666   3 C  d  1      
    14      4.575887   1 C  pz              259      4.023170   6 C  d -1      
 
 Vector   84  Occ=0.000000D+00  E= 4.017321D-01
              MO Center= -1.9D-02,  5.2D-01, -7.2D-04, r^2= 1.5D+01
   Bfn.  Coefficient  Atom+Function         Bfn.  Coefficient  Atom+Function  
  ----- ------------  ---------------      ----- ------------  ---------------
     5     51.609688   1 C  s               235    -20.224947   6 C  s         
    51    -19.243555   2 C  s               189    -17.529641   5 C  s         
    97    -17.183375   3 C  s               143     11.605296   4 C  s         
   142    -10.287510   4 C  s                 4     -9.655987   1 C  s         
    50     -8.054365   2 C  s               325      7.878956   9 H  s         
 
 Vector   85  Occ=0.000000D+00  E= 4.052906D-01
              MO Center= -5.4D-03,  8.9D-02, -7.0D-05, r^2= 1.3D+01
   Bfn.  Coefficient  Atom+Function         Bfn.  Coefficient  Atom+Function  
  ----- ------------  ---------------      ----- ------------  ---------------
     5     33.885180   1 C  s               143     17.756235   4 C  s         
    51    -13.256440   2 C  s               235    -12.736535   6 C  s         
   188     10.094583   5 C  s                96      9.893092   3 C  s         
    97     -7.693193   3 C  s               189     -7.338071   5 C  s         
   262      7.099903   6 C  d  2             78      6.782413   2 C  d  2      
 
 Vector   86  Occ=0.000000D+00  E= 4.130555D-01
[...]
     Occ.   19 beta  a   ---  Virt.   24 beta  a    0.21798 X
     Occ.   20 beta  a   ---  Virt.   22 beta  a   -0.14275 X
  ----------------------------------------------------------------------------
  Root  27         a              0.251957201 a.u.                6.8561 eV 
  <S2> =   1.6614
  ----------------------------------------------------------------------------
     Transition Moments    X  0.00002   Y  0.00000   Z  0.24440
     Transition Moments   XX  0.00005  XY -0.00006  XZ -0.03000
     Transition Moments   YY  0.00012  YZ  0.16554  ZZ  0.00003
     Dipole Oscillator Strength                    0.0100329943
     Electric Quadrupole                           0.0000000024
     Magnetic Dipole                               0.0000000310
     Total Oscillator Strength                     0.0100330278
 
     Occ.   19 alpha a   ---  Virt.   26 alpha a    0.97707 X
     Occ.   19 alpha a   ---  Virt.   35 alpha a   -0.07079 X
     Occ.   19 alpha a   ---  Virt.   36 alpha a   -0.07327 X
     Occ.   20 alpha a   ---  Virt.   25 alpha a    0.11675 X
     Occ.   20 alpha a   ---  Virt.   26 alpha a    0.09862 X
     Occ.   20 beta  a   ---  Virt.   26 beta  a    0.05065 X
  ----------------------------------------------------------------------------
  Root  28         a              0.252659394 a.u.                6.8752 eV 
  <S2> =   1.8941
  ----------------------------------------------------------------------------
     Transition Moments    X  0.00003   Y  0.00001   Z  0.01098
     Transition Moments   XX  0.00001  XY -0.00002  XZ  0.39132
     Transition Moments   YY  0.00008  YZ  0.03382  ZZ  0.00002
     Dipole Oscillator Strength                    0.0000203045
     Electric Quadrupole                           0.0000000133
     Magnetic Dipole                               0.0000000096
     Total Oscillator Strength                     0.0000203273
 
     Occ.   19 alpha a   ---  Virt.   25 alpha a   -0.24505 X
     Occ.   19 alpha a   ---  Virt.   26 alpha a    0.09836 X
     Occ.   20 alpha a   ---  Virt.   26 alpha a   -0.95565 X
     Occ.   20 alpha a   ---  Virt.   35 alpha a    0.06123 X
     Occ.   20 alpha a   ---  Virt.   36 alpha a    0.06516 X
     Occ.   19 beta  a   ---  Virt.   26 beta  a    0.06759 X
  ----------------------------------------------------------------------------
  Root  29         a              0.253975503 a.u.                6.9110 eV 
  <S2> =   1.6125
  ----------------------------------------------------------------------------
     Transition Moments    X  0.00005   Y -0.00002   Z -0.00126
     Transition Moments   XX -0.00003  XY  0.00005  XZ -0.49427
     Transition Moments   YY -0.00011  YZ -0.03410  ZZ -0.00003
     Dipole Oscillator Strength                    0.0000002687
     Electric Quadrupole                           0.0000000214
     Magnetic Dipole                               0.0000000110
     Total Oscillator Strength                     0.0000003011
 
     Occ.   20 alpha a   ---  Virt.   26 alpha a    0.07188 X
     Occ.   19 beta  a   ---  Virt.   26 beta  a    0.98504 X
     Occ.   19 beta  a   ---  Virt.   35 beta  a   -0.05779 X
     Occ.   19 beta  a   ---  Virt.   36 beta  a   -0.07400 X
     Occ.   20 beta  a   ---  Virt.   25 beta  a    0.09669 X
  ----------------------------------------------------------------------------
  Root  30         a              0.254724967 a.u.                6.9314 eV 
  <S2> =   0.7699
  ----------------------------------------------------------------------------
     Transition Moments    X  1.50522   Y  0.09923   Z -0.00003
     Transition Moments   XX  0.03334  XY -0.18629  XZ  0.00004
     Transition Moments   YY -0.01371  YZ -0.00002  ZZ  0.00298
     Dipole Oscillator Strength                    0.3864260728
     Electric Quadrupole                           0.0000000031
     Magnetic Dipole                               0.0000000178
     Total Oscillator Strength                     0.3864260937
 
     Occ.   19 alpha a   ---  Virt.   22 alpha a    0.38013 X
     Occ.   19 alpha a   ---  Virt.   22 alpha a   -0.05315 Y
     Occ.   20 alpha a   ---  Virt.   23 alpha a   -0.42733 X
     Occ.   20 alpha a   ---  Virt.   23 alpha a    0.05108 Y
     Occ.   20 alpha a   ---  Virt.   29 alpha a    0.14035 X
     Occ.   21 alpha a   ---  Virt.   25 alpha a   -0.07588 X
     Occ.   21 alpha a   ---  Virt.   27 alpha a    0.38474 X
     Occ.   13 beta  a   ---  Virt.   21 beta  a   -0.12853 X
     Occ.   15 beta  a   ---  Virt.   21 beta  a   -0.27171 X
     Occ.   19 beta  a   ---  Virt.   24 beta  a   -0.49933 X
     Occ.   19 beta  a   ---  Virt.   29 beta  a    0.13936 X
     Occ.   20 beta  a   ---  Virt.   22 beta  a    0.34926 X
     Occ.   20 beta  a   ---  Virt.   22 beta  a   -0.05622 Y
  ----------------------------------------------------------------------------
  Root  31         a              0.255325576 a.u.                6.9478 eV 
  <S2> =   0.8003
  ----------------------------------------------------------------------------
     Transition Moments    X  0.04819   Y -0.63578   Z -0.00000
     Transition Moments   XX -0.65120  XY  0.07501  XZ  0.00002
     Transition Moments   YY -1.88720  YZ -0.00003  ZZ -0.14701
     Dipole Oscillator Strength                    0.0692005947
     Electric Quadrupole                           0.0000000716
     Magnetic Dipole                               0.0000000000
     Total Oscillator Strength                     0.0692006662
 
     Occ.   19 alpha a   ---  Virt.   23 alpha a    0.10543 X
     Occ.   20 alpha a   ---  Virt.   22 alpha a    0.11473 X
     Occ.   21 alpha a   ---  Virt.   26 alpha a    0.18449 X
     Occ.   21 alpha a   ---  Virt.   28 alpha a   -0.91006 X
     Occ.   21 alpha a   ---  Virt.   30 alpha a   -0.12833 X
     Occ.   21 alpha a   ---  Virt.   31 alpha a   -0.16293 X
     Occ.   21 alpha a   ---  Virt.   48 alpha a    0.05656 X
     Occ.   16 beta  a   ---  Virt.   21 beta  a    0.18745 X
     Occ.   19 beta  a   ---  Virt.   22 beta  a    0.10953 X
     Occ.   20 beta  a   ---  Virt.   24 beta  a    0.09626 X
  ----------------------------------------------------------------------------
  Root  32         a              0.260675054 a.u.                7.0933 eV 
  <S2> =   0.7992
  ----------------------------------------------------------------------------
     Transition Moments    X -0.00001   Y  0.00002   Z -0.09574
     Transition Moments   XX  0.00001  XY  0.00000  XZ  0.04331
     Transition Moments   YY  0.00004  YZ -0.70618  ZZ -0.00000
     Dipole Oscillator Strength                    0.0015928632
     Electric Quadrupole                           0.0000000472
     Magnetic Dipole                               0.0000000334
     Total Oscillator Strength                     0.0015929439
 
     Occ.   21 alpha a   ---  Virt.   29 alpha a    0.97946 X
     Occ.   21 alpha a   ---  Virt.   33 alpha a    0.18003 X
  ----------------------------------------------------------------------------
  Root  33         a              0.265417242 a.u.                7.2224 eV 
  <S2> =   1.7806
  ----------------------------------------------------------------------------
     Transition Moments    X  0.00001   Y  0.00001   Z -0.00007
     Transition Moments   XX -0.00006  XY  0.00002  XZ  0.54616
     Transition Moments   YY -0.00003  YZ  0.03287  ZZ -0.00004
     Dipole Oscillator Strength                    0.0000000008
     Electric Quadrupole                           0.0000000298
     Magnetic Dipole                               0.0000000005
     Total Oscillator Strength                     0.0000000312
 
     Occ.   20 beta  a   ---  Virt.   27 beta  a    0.99107 X
     Occ.   20 beta  a   ---  Virt.   38 beta  a   -0.09650 X
  ----------------------------------------------------------------------------
  Root  34         a              0.267144762 a.u.                7.2694 eV 
  <S2> =   0.8198
  ----------------------------------------------------------------------------
     Transition Moments    X  0.07431   Y -1.19954   Z  0.00000
     Transition Moments   XX  0.01269  XY -0.04536  XZ  0.00001
     Transition Moments   YY  0.69779  YZ  0.00005  ZZ  0.04441
     Dipole Oscillator Strength                    0.2572443145
     Electric Quadrupole                           0.0000000154
     Magnetic Dipole                               0.0000000000
     Total Oscillator Strength                     0.2572443299
 
     Occ.   17 alpha a   ---  Virt.   23 alpha a   -0.08502 X
     Occ.   19 alpha a   ---  Virt.   23 alpha a    0.30475 X
     Occ.   19 alpha a   ---  Virt.   29 alpha a    0.16093 X
     Occ.   20 alpha a   ---  Virt.   22 alpha a    0.22280 X
     Occ.   21 alpha a   ---  Virt.   28 alpha a    0.30047 X
     Occ.   21 alpha a   ---  Virt.   30 alpha a   -0.43219 X
     Occ.   21 alpha a   ---  Virt.   31 alpha a    0.08090 X
     Occ.   14 beta  a   ---  Virt.   21 beta  a   -0.08796 X
     Occ.   16 beta  a   ---  Virt.   21 beta  a    0.50008 X
     Occ.   19 beta  a   ---  Virt.   22 beta  a    0.22376 X
     Occ.   20 beta  a   ---  Virt.   24 beta  a    0.30738 X
     Occ.   20 beta  a   ---  Virt.   29 beta  a    0.34123 X
  ----------------------------------------------------------------------------
  Root  35         a              0.270830913 a.u.                7.3697 eV 
  <S2> =   2.7184
  ----------------------------------------------------------------------------
     Transition Moments    X -0.00000   Y -0.00001   Z -0.00922
     Transition Moments   XX  0.00001  XY -0.00001  XZ  0.02080
     Transition Moments   YY  0.00001  YZ -0.13040  ZZ -0.00000
     Dipole Oscillator Strength                    0.0000153440
     Electric Quadrupole                           0.0000000018
     Magnetic Dipole                               0.0000000000
     Total Oscillator Strength                     0.0000153459
 
     Occ.   20 alpha a   ---  Virt.   27 alpha a    0.78127 X
     Occ.   20 alpha a   ---  Virt.   38 alpha a   -0.08662 X
     Occ.   19 beta  a   ---  Virt.   27 beta  a   -0.59729 X
     Occ.   19 beta  a   ---  Virt.   38 beta  a    0.07010 X
     Occ.   20 beta  a   ---  Virt.   28 beta  a   -0.05465 X
     Occ.   20 beta  a   ---  Virt.   30 beta  a   -0.06190 X
  ----------------------------------------------------------------------------
  Root  36         a              0.271245093 a.u.                7.3810 eV 
  <S2> =   2.7412
  ----------------------------------------------------------------------------
     Transition Moments    X  0.04837   Y -0.00003   Z -0.00000
     Transition Moments   XX  0.00990  XY -0.02734  XZ  0.00001
     Transition Moments   YY -0.00773  YZ -0.00003  ZZ  0.00183
     Dipole Oscillator Strength                    0.0004231509
     Electric Quadrupole                           0.0000000001
     Magnetic Dipole                               0.0000000018
     Total Oscillator Strength                     0.0004231528
 
     Occ.   17 alpha a   ---  Virt.   22 alpha a    0.59836 X
     Occ.   17 alpha a   ---  Virt.   41 alpha a   -0.05241 X
     Occ.   19 alpha a   ---  Virt.   32 alpha a   -0.08365 X
     Occ.   20 alpha a   ---  Virt.   29 alpha a    0.16058 X
     Occ.   20 alpha a   ---  Virt.   44 alpha a   -0.22710 X
     Occ.   20 alpha a   ---  Virt.   47 alpha a    0.17376 X
     Occ.   17 beta  a   ---  Virt.   22 beta  a   -0.64454 X
     Occ.   17 beta  a   ---  Virt.   41 beta  a    0.05433 X
     Occ.   19 beta  a   ---  Virt.   29 beta  a   -0.10435 X
     Occ.   19 beta  a   ---  Virt.   44 beta  a    0.20076 X
     Occ.   19 beta  a   ---  Virt.   47 beta  a   -0.16678 X
     Occ.   20 beta  a   ---  Virt.   31 beta  a    0.10180 X
  ----------------------------------------------------------------------------
  Root  37         a              0.271696008 a.u.                7.3932 eV 
  <S2> =   1.0356
  ----------------------------------------------------------------------------
     Transition Moments    X  0.03236   Y -0.52786   Z  0.00000
     Transition Moments   XX  1.06398  XY  0.11384  XZ -0.00000
     Transition Moments   YY -0.75967  YZ  0.00000  ZZ  0.24138
     Dipole Oscillator Strength                    0.0506585417
     Electric Quadrupole                           0.0000000905
     Magnetic Dipole                               0.0000000000
     Total Oscillator Strength                     0.0506586321
 
     Occ.   17 alpha a   ---  Virt.   23 alpha a   -0.06350 X
     Occ.   19 alpha a   ---  Virt.   23 alpha a    0.09592 X
     Occ.   21 alpha a   ---  Virt.   30 alpha a    0.79961 X
     Occ.   21 alpha a   ---  Virt.   31 alpha a   -0.20709 X
     Occ.   21 alpha a   ---  Virt.   35 alpha a    0.07536 X
     Occ.   21 alpha a   ---  Virt.   40 alpha a   -0.05692 X
     Occ.   14 beta  a   ---  Virt.   21 beta  a   -0.06501 X
     Occ.   16 beta  a   ---  Virt.   21 beta  a    0.19532 X
     Occ.   19 beta  a   ---  Virt.   22 beta  a    0.06183 X
     Occ.   20 beta  a   ---  Virt.   24 beta  a    0.10072 X
     Occ.   20 beta  a   ---  Virt.   29 beta  a    0.47420 X
  ----------------------------------------------------------------------------
  Root  38         a              0.271815248 a.u.                7.3965 eV 
  <S2> =   0.8159
  ----------------------------------------------------------------------------
     Transition Moments    X  0.00001   Y -0.00005   Z  0.02497
     Transition Moments   XX  0.00009  XY  0.00006  XZ -0.08229
     Transition Moments   YY -0.00013  YZ  0.87213  ZZ  0.00004
     Dipole Oscillator Strength                    0.0001129857
     Electric Quadrupole                           0.0000000821
     Magnetic Dipole                               0.0000000038
     Total Oscillator Strength                     0.0001130716
 
     Occ.   20 alpha a   ---  Virt.   27 alpha a   -0.59447 X
     Occ.   20 alpha a   ---  Virt.   38 alpha a    0.05106 X
     Occ.   19 beta  a   ---  Virt.   27 beta  a   -0.78557 X
     Occ.   19 beta  a   ---  Virt.   38 beta  a    0.07329 X
     Occ.   20 beta  a   ---  Virt.   28 beta  a    0.12640 X
  ----------------------------------------------------------------------------
  Root  39         a              0.272275258 a.u.                7.4090 eV 
  <S2> =   1.7237
  ----------------------------------------------------------------------------
     Transition Moments    X  0.00001   Y -0.00000   Z  0.00140
     Transition Moments   XX -0.00006  XY  0.00003  XZ  0.54527
     Transition Moments   YY -0.00001  YZ  0.07805  ZZ -0.00003
     Dipole Oscillator Strength                    0.0000003561
     Electric Quadrupole                           0.0000000326
     Magnetic Dipole                               0.0000000013
     Total Oscillator Strength                     0.0000003900
 
     Occ.   19 alpha a   ---  Virt.   27 alpha a    0.98996 X
     Occ.   19 alpha a   ---  Virt.   38 alpha a   -0.09586 X
  ----------------------------------------------------------------------------
  Root  40         a              0.272518063 a.u.                7.4156 eV 
  <S2> =   1.9639
  ----------------------------------------------------------------------------
     Transition Moments    X  0.00001   Y -0.00004   Z -0.04155
     Transition Moments   XX -0.00002  XY -0.00003  XZ  0.02771
     Transition Moments   YY -0.00006  YZ -0.44216  ZZ -0.00001
     Dipole Oscillator Strength                    0.0003136534
     Electric Quadrupole                           0.0000000212
     Magnetic Dipole                               0.0000000053
     Total Oscillator Strength                     0.0003136798
 
     Occ.   19 alpha a   ---  Virt.   28 alpha a    0.11739 X
     Occ.   20 alpha a   ---  Virt.   27 alpha a   -0.12788 X
     Occ.   17 beta  a   ---  Virt.   21 beta  a    0.05488 X
     Occ.   19 beta  a   ---  Virt.   27 beta  a   -0.06265 X
     Occ.   20 beta  a   ---  Virt.   28 beta  a   -0.96959 X
     Occ.   20 beta  a   ---  Virt.   30 beta  a   -0.05586 X
     Occ.   20 beta  a   ---  Virt.   32 beta  a   -0.07480 X
     Occ.   20 beta  a   ---  Virt.   43 beta  a   -0.08096 X
 
              Target root =      1
          Target symmetry = none
      Ground state energy =   -231.646317682292
        Excitation energy =      0.106111115950
     Excited state energy =   -231.540206566342
 
  stored tddft:energy   -231.540206566342     

 Task  times  cpu:     2908.2s     wall:     2998.3s
 
 
                                NWChem Input Module
                                -------------------
 
 
 Summary of allocated global arrays
-----------------------------------
  No active global arrays



                         GA Statistics for process    0
                         ------------------------------

       create   destroy   get      put      acc     scatter   gather  read&inc
calls: 9544     9544     9.64e+06 4.29e+06 1.90e+06 5660        0      235     
number of processes/call 1.33e+00 1.71e+00 1.90e+00 0.00e+00 0.00e+00
bytes total:             8.35e+10 1.16e+10 9.15e+10 6.26e+04 0.00e+00 1.88e+03
bytes remote:            6.02e+10 1.09e+09 8.73e+10 0.00e+00 0.00e+00 0.00e+00
Max memory consumed for GA by this process: 205086464 bytes
 
MA_summarize_allocated_blocks: starting scan ...
MA_summarize_allocated_blocks: scan completed: 0 heap blocks, 0 stack blocks
MA usage statistics:

	allocation statistics:
					      heap	     stack
					      ----	     -----
	current number of blocks	         0	         0
	maximum number of blocks	        20	        52
	current total bytes		         0	         0
	maximum total bytes		   1166032	  68276376
	maximum total K-bytes		      1167	     68277
	maximum total M-bytes		         2	        69
 
 
                                     CITATION
                                     --------
                Please cite the following reference when publishing
                           results obtained with NWChem:
 
                 M. Valiev, E.J. Bylaska, N. Govind, K. Kowalski,
              T.P. Straatsma, H.J.J. van Dam, D. Wang, J. Nieplocha,
                        E. Apra, T.L. Windus, W.A. de Jong
                 "NWChem: a comprehensive and scalable open-source
                  solution for large scale molecular simulations"
                      Comput. Phys. Commun. 181, 1477 (2010)
                           doi:10.1016/j.cpc.2010.04.018
 
                                      AUTHORS
                                      -------
          E. Apra, E. J. Bylaska, W. A. de Jong, N. Govind, K. Kowalski,
       T. P. Straatsma, M. Valiev, H. J. J. van Dam, D. Wang, T. L. Windus,
        J. Hammond, J. Autschbach, K. Bhaskaran-Nair, J. Brabec, K. Lopata,
    S. A. Fischer, S. Krishnamoorthy, M. Jacquelin, W. Ma, M. Klemm, O. Villa,
      Y. Chen, V. Anisimov, F. Aquino, S. Hirata, M. T. Hackler, V. Konjkov,
            D. Mejia-Rodriguez, T. Risthaus, M. Malagoli, A. Marenich,
   A. Otero-de-la-Roza, J. Mullin, P. Nichols, R. Peverati, J. Pittner, Y. Zhao,
        P.-D. Fan, A. Fonari, M. J. Williamson, R. J. Harrison, J. R. Rehr,
      M. Dupuis, D. Silverstein, D. M. A. Smith, J. Nieplocha, V. Tipparaju,
    M. Krishnan, B. E. Van Kuiken, A. Vazquez-Mayagoitia, L. Jensen, M. Swart,
      Q. Wu, T. Van Voorhis, A. A. Auer, M. Nooijen, L. D. Crosby, E. Brown,
      G. Cisneros, G. I. Fann, H. Fruchtl, J. Garza, K. Hirao, R. A. Kendall,
      J. A. Nichols, K. Tsemekhman, K. Wolinski, J. Anchell, D. E. Bernholdt,
      P. Borowski, T. Clark, D. Clerc, H. Dachsel, M. J. O. Deegan, K. Dyall,
    D. Elwood, E. Glendening, M. Gutowski, A. C. Hess, J. Jaffe, B. G. Johnson,
     J. Ju, R. Kobayashi, R. Kutteh, Z. Lin, R. Littlefield, X. Long, B. Meng,
      T. Nakajima, S. Niu, L. Pollack, M. Rosing, K. Glaesemann, G. Sandrone,
      M. Stave, H. Taylor, G. Thomas, J. H. van Lenthe, A. T. Wong, Z. Zhang.

 Total times  cpu:     2908.3s     wall:     2999.5s
