 argument  1 = /storage/home/j/jbb5516/normalModes/mode977.28-m.nw
 


============================== echo of input deck ==============================
echo
start

title "None"

geometry
C    -0.08747224    1.38830409    0.00000005
C    -1.26735482    0.69112092   -0.00044154
C    -1.16733630   -0.70470852    0.00054020
C     0.08291598   -1.31598916    0.00000029
C     1.24655610   -0.55261762   -0.00054036
C     1.17058620    0.84472727    0.00044139
H    -2.23189055    1.18090100    0.00225905
H    -2.06748412   -1.30603725   -0.00290053
H     0.15092404   -2.39537432   -0.00000131
H     2.21506130   -1.03620839    0.00290062
H     2.06601969    1.45169726   -0.00225812
symmetry c1
end

basis spherical
 * library "aug-cc-pvtz"
end

dft
 direct
 mult 2
 iterations 500
 xc b3lyp
end

tddft
 nroots 40
 notriplet
 algorithm 1
end
task tddft energy
================================================================================


                                         
                                         
 
 
              Northwest Computational Chemistry Package (NWChem) 6.8
              ------------------------------------------------------
 
 
                    Environmental Molecular Sciences Laboratory
                       Pacific Northwest National Laboratory
                                Richland, WA 99352
 
                              Copyright (c) 1994-2017
                       Pacific Northwest National Laboratory
                            Battelle Memorial Institute
 
             NWChem is an open-source computational chemistry package
                        distributed under the terms of the
                      Educational Community License (ECL) 2.0
             A copy of the license is included with this distribution
                              in the LICENSE.TXT file
 
                                  ACKNOWLEDGMENT
                                  --------------

            This software and its documentation were developed at the
            EMSL at Pacific Northwest National Laboratory, a multiprogram
            national laboratory, operated for the U.S. Department of Energy
            by Battelle under Contract Number DE-AC05-76RL01830. Support
            for this work was provided by the Department of Energy Office
            of Biological and Environmental Research, Office of Basic
            Energy Sciences, and the Office of Advanced Scientific Computing.


           Job information
           ---------------

    hostname        = comp-sc-0464.acib.production.int.aci.ics.psu.edu
    program         = /gpfs/group/lxj18/default/jeffprograms/nwchem-6.8.1/bin/LINUX64/nwchem
    date            = Sun Sep 20 21:08:22 2020

    compiled        = Wed_Oct_03_14:08:39_2018
    source          = /gpfs/group/lxj18/default/jeffprograms/nwchem-6.8.1
    nwchem branch   = 6.8.1
    nwchem revision = v6.8-143-gdb0d964
    ga revision     = 5.6.5
    use scalapack   = F
    input           = /storage/home/j/jbb5516/normalModes/mode977.28-m.nw
    prefix          = mode977.28-m.
    data base       = ./mode977.28-m.db
    status          = startup
    nproc           =       20
    time left       =     -1s



           Memory information
           ------------------

    heap     =   13107198 doubles =    100.0 Mbytes
    stack    =   13107195 doubles =    100.0 Mbytes
    global   =   26214400 doubles =    200.0 Mbytes (distinct from heap & stack)
    total    =   52428793 doubles =    400.0 Mbytes
    verify   = yes
    hardfail = no 


           Directory information
           ---------------------
 
  0 permanent = .
  0 scratch   = .
 
 
 
 
                                NWChem Input Module
                                -------------------
 
 
                                       None
                                       ----

 Scaling coordinates for geometry "geometry" by  1.889725989
 (inverse scale =  0.529177249)

 Turning off AUTOSYM since
 SYMMETRY directive was detected!
 

          ------
          auto-z
          ------
 
 
                             Geometry "geometry" -> ""
                             -------------------------
 
 Output coordinates in angstroms (scale by  1.889725989 to convert to a.u.)
 
  No.       Tag          Charge          X              Y              Z
 ---- ---------------- ---------- -------------- -------------- --------------
    1 C                    6.0000    -0.08747224     1.38830409     0.00000005
    2 C                    6.0000    -1.26735482     0.69112092    -0.00044154
    3 C                    6.0000    -1.16733630    -0.70470852     0.00054020
    4 C                    6.0000     0.08291598    -1.31598916     0.00000029
    5 C                    6.0000     1.24655610    -0.55261762    -0.00054036
    6 C                    6.0000     1.17058620     0.84472727     0.00044139
    7 H                    1.0000    -2.23189055     1.18090100     0.00225905
    8 H                    1.0000    -2.06748412    -1.30603725    -0.00290053
    9 H                    1.0000     0.15092404    -2.39537432    -0.00000131
   10 H                    1.0000     2.21506130    -1.03620839     0.00290062
   11 H                    1.0000     2.06601969     1.45169726    -0.00225812
 
      Atomic Mass 
      ----------- 
 
      C                 12.000000
      H                  1.007825
 

 Effective nuclear repulsion energy (a.u.)     195.0639412606

            Nuclear Dipole moment (a.u.) 
            ----------------------------
        X                 Y               Z
 ---------------- ---------------- ----------------
    -0.0000000000     0.0000000000    -0.0000000000
 


                                Z-matrix (autoz)
                                -------- 

 Units are Angstrom for bonds and degrees for angles
 
      Type          Name      I     J     K     L     M      Value
      ----------- --------  ----- ----- ----- ----- ----- ----------
    1 Stretch                  1     2                       1.37047
    2 Stretch                  1     6                       1.37047
    3 Stretch                  2     3                       1.39941
    4 Stretch                  2     7                       1.08177
    5 Stretch                  3     4                       1.39169
    6 Stretch                  3     8                       1.08253
    7 Stretch                  4     5                       1.39169
    8 Stretch                  4     9                       1.08153
    9 Stretch                  5     6                       1.39941
   10 Stretch                  5    10                       1.08253
   11 Stretch                  6    11                       1.08177
   12 Bend                     1     2     3               116.47994
   13 Bend                     1     2     7               122.50040
   14 Bend                     1     6     5               116.47994
   15 Bend                     1     6    11               122.50042
   16 Bend                     2     1     6               126.05349
   17 Bend                     2     3     4               120.15371
   18 Bend                     2     3     8               119.64538
   19 Bend                     3     2     7               121.01924
   20 Bend                     3     4     5               120.67911
   21 Bend                     3     4     9               119.66043
   22 Bend                     4     3     8               120.20030
   23 Bend                     4     5     6               120.15370
   24 Bend                     4     5    10               120.20034
   25 Bend                     5     4     9               119.66046
   26 Bend                     5     6    11               121.01921
   27 Bend                     6     5    10               119.64535
   28 Torsion                  1     2     3     4          -0.08971
   29 Torsion                  1     2     3     8        -179.80823
   30 Torsion                  1     6     5     4          -0.08973
   31 Torsion                  1     6     5    10        -179.80821
   32 Torsion                  2     1     6     5           0.04469
   33 Torsion                  2     1     6    11         179.80931
   34 Torsion                  2     3     4     5           0.04670
   35 Torsion                  2     3     4     9        -179.95316
   36 Torsion                  3     2     1     6           0.04472
   37 Torsion                  3     4     5     6           0.04678
   38 Torsion                  3     4     5    10         179.76368
   39 Torsion                  4     3     2     7        -179.85798
   40 Torsion                  4     5     6    11        -179.85808
   41 Torsion                  5     4     3     8         179.76366
   42 Torsion                  6     1     2     7         179.80926
   43 Torsion                  6     5     4     9        -179.95336
   44 Torsion                  7     2     3     8           0.42349
   45 Torsion                  8     3     4     9          -0.23621
   46 Torsion                  9     4     5    10          -0.23645
   47 Torsion                 10     5     6    11           0.42344
 
 
            XYZ format geometry
            -------------------
    11
 geometry
 C                    -0.08747224     1.38830409     0.00000005
 C                    -1.26735482     0.69112092    -0.00044154
 C                    -1.16733630    -0.70470852     0.00054020
 C                     0.08291598    -1.31598916     0.00000029
 C                     1.24655610    -0.55261762    -0.00054036
 C                     1.17058620     0.84472727     0.00044139
 H                    -2.23189055     1.18090100     0.00225905
 H                    -2.06748412    -1.30603725    -0.00290053
 H                     0.15092404    -2.39537432    -0.00000131
 H                     2.21506130    -1.03620839     0.00290062
 H                     2.06601969     1.45169726    -0.00225812
 
 ==============================================================================
                                internuclear distances
 ------------------------------------------------------------------------------
       center one      |      center two      | atomic units |  angstroms
 ------------------------------------------------------------------------------
    2 C                |   1 C                |     2.58981  |     1.37047
    3 C                |   2 C                |     2.64450  |     1.39941
    4 C                |   3 C                |     2.62991  |     1.39169
    5 C                |   4 C                |     2.62991  |     1.39169
    6 C                |   1 C                |     2.58981  |     1.37047
    6 C                |   5 C                |     2.64450  |     1.39941
    7 H                |   2 C                |     2.04424  |     1.08177
    8 H                |   3 C                |     2.04569  |     1.08253
    9 H                |   4 C                |     2.04379  |     1.08153
   10 H                |   5 C                |     2.04569  |     1.08253
   11 H                |   6 C                |     2.04424  |     1.08177
 ------------------------------------------------------------------------------
                         number of included internuclear distances:         11
 ==============================================================================



 ==============================================================================
                                 internuclear angles
 ------------------------------------------------------------------------------
        center 1       |       center 2       |       center 3       |  degrees
 ------------------------------------------------------------------------------
    2 C                |   1 C                |   6 C                |   126.05
    1 C                |   2 C                |   3 C                |   116.48
    1 C                |   2 C                |   7 H                |   122.50
    3 C                |   2 C                |   7 H                |   121.02
    2 C                |   3 C                |   4 C                |   120.15
    2 C                |   3 C                |   8 H                |   119.65
    4 C                |   3 C                |   8 H                |   120.20
    3 C                |   4 C                |   5 C                |   120.68
    3 C                |   4 C                |   9 H                |   119.66
    5 C                |   4 C                |   9 H                |   119.66
    4 C                |   5 C                |   6 C                |   120.15
    4 C                |   5 C                |  10 H                |   120.20
    6 C                |   5 C                |  10 H                |   119.65
    1 C                |   6 C                |   5 C                |   116.48
    1 C                |   6 C                |  11 H                |   122.50
    5 C                |   6 C                |  11 H                |   121.02
 ------------------------------------------------------------------------------
                            number of included internuclear angles:         16
 ==============================================================================





 Summary of "ao basis" -> "" (spherical)
 ------------------------------------------------------------------------------
       Tag                 Description            Shells   Functions and Types
 ---------------- ------------------------------  ------  ---------------------
 *                        aug-cc-pvtz                 on all atoms 


 
                                 NWChem DFT Module
                                 -----------------
 
 
                                       None
 
 
                      Basis "ao basis" -> "ao basis" (spherical)
                      -----
  C (Carbon)
  ----------
            Exponent  Coefficients 
       -------------- ---------------------------------------------------------
  1 S  8.23600000E+03  0.000531
  1 S  1.23500000E+03  0.004108
  1 S  2.80800000E+02  0.021087
  1 S  7.92700000E+01  0.081853
  1 S  2.55900000E+01  0.234817
  1 S  8.99700000E+00  0.434401
  1 S  3.31900000E+00  0.346129
  1 S  3.64300000E-01 -0.008983
 
  2 S  8.23600000E+03 -0.000113
  2 S  1.23500000E+03 -0.000878
  2 S  2.80800000E+02 -0.004540
  2 S  7.92700000E+01 -0.018133
  2 S  2.55900000E+01 -0.055760
  2 S  8.99700000E+00 -0.126895
  2 S  3.31900000E+00 -0.170352
  2 S  3.64300000E-01  0.598684
 
  3 S  9.05900000E-01  1.000000
 
  4 S  1.28500000E-01  1.000000
 
  5 S  4.40200000E-02  1.000000
 
  6 P  1.87100000E+01  0.014031
  6 P  4.13300000E+00  0.086866
  6 P  1.20000000E+00  0.290216
 
  7 P  3.82700000E-01  1.000000
 
  8 P  1.20900000E-01  1.000000
 
  9 P  3.56900000E-02  1.000000
 
 10 D  1.09700000E+00  1.000000
 
 11 D  3.18000000E-01  1.000000
 
 12 D  1.00000000E-01  1.000000
 
 13 F  7.61000000E-01  1.000000
 
 14 F  2.68000000E-01  1.000000
 
  H (Hydrogen)
  ------------
            Exponent  Coefficients 
       -------------- ---------------------------------------------------------
  1 S  3.38700000E+01  0.006068
  1 S  5.09500000E+00  0.045308
  1 S  1.15900000E+00  0.202822
 
  2 S  3.25800000E-01  1.000000
 
  3 S  1.02700000E-01  1.000000
 
  4 S  2.52600000E-02  1.000000
 
  5 P  1.40700000E+00  1.000000
 
  6 P  3.88000000E-01  1.000000
 
  7 P  1.02000000E-01  1.000000
 
  8 D  1.05700000E+00  1.000000
 
  9 D  2.47000000E-01  1.000000
 


 Summary of "ao basis" -> "ao basis" (spherical)
 ------------------------------------------------------------------------------
       Tag                 Description            Shells   Functions and Types
 ---------------- ------------------------------  ------  ---------------------
 C                        aug-cc-pvtz               14       46   5s4p3d2f
 H                        aug-cc-pvtz                9       23   4s3p2d




 Summary of "ao basis" -> "ao basis" (spherical)
 ------------------------------------------------------------------------------
       Tag                 Description            Shells   Functions and Types
 ---------------- ------------------------------  ------  ---------------------
 C                        aug-cc-pvtz               14       46   5s4p3d2f
 H                        aug-cc-pvtz                9       23   4s3p2d


  Caching 1-el integrals 
 
            General Information
            -------------------
          SCF calculation type: DFT
          Wavefunction type:  spin polarized.
          No. of atoms     :    11
          No. of electrons :    41
           Alpha electrons :    21
            Beta electrons :    20
          Charge           :     0
          Spin multiplicity:     2
          Use of symmetry is: off; symmetry adaption is: off
          Maximum number of iterations: 500
          This is a Direct SCF calculation.
          AO basis - number of functions:   391
                     number of shells:   129
          Convergence on energy requested:  1.00D-06
          Convergence on density requested:  1.00D-05
          Convergence on gradient requested:  5.00D-04
 
              XC Information
              --------------
                         B3LYP Method XC Potential
                     Hartree-Fock (Exact) Exchange  0.200          
                        Slater Exchange Functional  0.800 local    
                    Becke 1988 Exchange Functional  0.720 non-local
              Lee-Yang-Parr Correlation Functional  0.810          
                  VWN I RPA Correlation Functional  0.190 local    
 
             Grid Information
             ----------------
          Grid used for XC integration:  medium    
          Radial quadrature: Mura-Knowles        
          Angular quadrature: Lebedev. 
          Tag              B.-S. Rad. Rad. Pts. Rad. Cut. Ang. Pts.
          ---              ---------- --------- --------- ---------
          C                   0.70       49          15.0       434
          H                   0.35       45          17.0       434
          Grid pruning is: on 
          Number of quadrature shells:   519
          Spatial weights used:  Erf1
 
          Convergence Information
          -----------------------
          Convergence aids based upon iterative change in 
          total energy or number of iterations. 
          Levelshifting, if invoked, occurs when the 
          HOMO/LUMO gap drops below (HL_TOL):  1.00D-02
          DIIS, if invoked, will attempt to extrapolate 
          using up to (NFOCK): 10 stored Fock matrices.

                    Damping( 0%)  Levelshifting(0.5)       DIIS
                  --------------- ------------------- ---------------
          dE  on:    start            ASAP                start   
          dE off:    2 iters        500 iters           500 iters 

 
      Screening Tolerance Information
      -------------------------------
          Density screening/tol_rho:  1.00D-10
          AO Gaussian exp screening on grid/accAOfunc:  14
          CD Gaussian exp screening on grid/accCDfunc:  20
          XC Gaussian exp screening on grid/accXCfunc:  20
          Schwarz screening/accCoul:  1.00D-08

 
 WARNING : Found     7 linear dependencies 
 S eigenvalue threshold:     1.00000E-05
 Smallest S eigenvalue :     1.46421E-06
 Largest  S eigenvalue :     7.76663E-06
 

 !! The overlap matrix has   7 vectors deemed linearly dependent with
    eigenvalues:
 1.46D-06 2.24D-06 2.83D-06 3.54D-06 5.28D-06 5.96D-06 7.77D-06
 
 
      Superposition of Atomic Density Guess
      -------------------------------------
 
 Sum of atomic energies:        -228.52307259
 
      Non-variational initial energy
      ------------------------------

 Total energy =    -232.667198
 1-e energy   =    -691.328412
 2-e energy   =     263.597273
 HOMO         =      -0.183326
 LUMO         =      -0.022270
 
   Time after variat. SCF:     10.1
   Time prior to 1st pass:     10.1

 Grid_pts file          = ./mode977.28-m.gridpts.00
 Record size in doubles =  12289        No. of grid_pts per rec  =   3070
 Max. records in memory =      6        Max. recs in file   = 236560487

 Grid integrated density:      40.999765881075
 Requested integration accuracy:   0.10E-05

           Memory utilization after 1st SCF pass: 
           Heap Space remaining (MW):       12.96            12961278
          Stack Space remaining (MW):       13.10            13103676

   convergence    iter        energy       DeltaE   RMS-Dens  Diis-err    time
 ---------------- ----- ----------------- --------- --------- ---------  ------
 d= 0,ls=0.0,diis     1   -231.5815887542 -4.27D+02  6.18D-02  2.09D-01    21.6
                                                     6.98D-02  1.96D-01
 d= 0,ls=0.0,diis     2   -231.6398327320 -5.82D-02  6.09D-02  1.22D-02    33.1
                                                     6.87D-02  1.25D-02
 d= 0,ls=0.0,diis     3   -231.6446096088 -4.78D-03  1.28D-03  3.44D-03    44.8
                                                     1.38D-03  3.50D-03
 d= 0,ls=0.0,diis     4   -231.6457665949 -1.16D-03  2.03D-04  1.12D-03    56.6
                                                     2.07D-04  1.06D-03
 d= 0,ls=0.0,diis     5   -231.6462847132 -5.18D-04  3.40D-05  4.24D-05    68.3
                                                     3.12D-05  4.84D-05
  Resetting Diis
 d= 0,ls=0.0,diis     6   -231.6463125897 -2.79D-05  1.11D-05  7.81D-06    80.0
                                                     1.06D-05  6.31D-06
 d= 0,ls=0.0,diis     7   -231.6463187839 -6.19D-06  7.31D-06  2.13D-06    91.8
                                                     6.52D-06  2.39D-06
 d= 0,ls=0.0,diis     8   -231.6463198586 -1.07D-06  3.05D-06  5.48D-06   103.8
                                                     2.70D-06  4.83D-06
 d= 0,ls=0.0,diis     9   -231.6463231486 -3.29D-06  3.74D-06  3.84D-07   115.5
                                                     3.31D-06  3.27D-07
 d= 0,ls=0.0,diis    10   -231.6463244524 -1.30D-06  2.14D-06  1.89D-07   127.3
                                                     2.45D-06  2.88D-07
 d= 0,ls=0.0,diis    11   -231.6463248868 -4.34D-07  5.94D-07  1.19D-08   139.7
                                                     5.14D-07  9.03D-09


         Total DFT energy =     -231.646324886759
      One electron energy =     -696.560854274361
           Coulomb energy =      304.259773480589
    Exchange-Corr. energy =      -34.409185353597
 Nuclear repulsion energy =      195.063941260610

 Numeric. integr. density =       40.999984400004

     Total iterative time =    132.9s


 
                    DFT Final Alpha Molecular Orbital Analysis
                    ------------------------------------------
 
 Vector    1  Occ=1.000000D+00  E=-1.020525D+01
              MO Center= -8.7D-02,  1.4D+00,  5.2D-08, r^2= 3.0D-02
   Bfn.  Coefficient  Atom+Function         Bfn.  Coefficient  Atom+Function  
  ----- ------------  ---------------      ----- ------------  ---------------
     1      0.984164   1 C  s                 3      0.058854   1 C  s         
    50     -0.038416   2 C  s               234     -0.038417   6 C  s         
   143      0.037875   4 C  s               279      0.037951   7 H  s         
   371      0.037949  11 H  s                51     -0.030671   2 C  s         
   235     -0.030670   6 C  s                47      0.025289   2 C  s         
 
 Vector    2  Occ=1.000000D+00  E=-1.019183D+01
              MO Center= -7.3D-01, -6.3D-01,  3.2D-04, r^2= 9.6D-01
   Bfn.  Coefficient  Atom+Function         Bfn.  Coefficient  Atom+Function  
  ----- ------------  ---------------      ----- ------------  ---------------
    93      0.874110   3 C  s               185      0.412046   5 C  s         
    47      0.176767   2 C  s               142     -0.092917   4 C  s         
   231      0.072011   6 C  s               139      0.055744   4 C  s         
    95      0.052264   3 C  s               302      0.049054   8 H  s         
   325      0.048091   9 H  s               234      0.036368   6 C  s         
 
 Vector    3  Occ=1.000000D+00  E=-1.019180D+01
              MO Center=  8.1D-01, -5.2D-01, -3.2D-04, r^2= 9.8D-01
   Bfn.  Coefficient  Atom+Function         Bfn.  Coefficient  Atom+Function  
  ----- ------------  ---------------      ----- ------------  ---------------
   185      0.872102   5 C  s                93     -0.407840   3 C  s         
   231      0.190354   6 C  s                47     -0.100684   2 C  s         
    50      0.062541   2 C  s               348      0.059053  10 H  s         
    51      0.052895   2 C  s               187      0.051925   5 C  s         
   279     -0.051679   7 H  s               234     -0.051097   6 C  s         
 
 Vector    4  Occ=1.000000D+00  E=-1.019034D+01
              MO Center= -1.1D+00,  6.4D-01, -3.6D-04, r^2= 3.9D-01
   Bfn.  Coefficient  Atom+Function         Bfn.  Coefficient  Atom+Function  
  ----- ------------  ---------------      ----- ------------  ---------------
    47      0.940250   2 C  s               231      0.221478   6 C  s         
    93     -0.191958   3 C  s               279      0.058556   7 H  s         
    49      0.054936   2 C  s               143      0.037880   4 C  s         
     4     -0.035245   1 C  s               185     -0.033153   5 C  s         
   142     -0.032000   4 C  s               189      0.031683   5 C  s         
 
 Vector    5  Occ=1.000000D+00  E=-1.019033D+01
              MO Center=  1.0D+00,  7.7D-01,  3.6D-04, r^2= 4.0D-01
   Bfn.  Coefficient  Atom+Function         Bfn.  Coefficient  Atom+Function  
  ----- ------------  ---------------      ----- ------------  ---------------
   231      0.938638   6 C  s                47     -0.214613   2 C  s         
   185     -0.197599   5 C  s                93      0.056963   3 C  s         
   371      0.056248  11 H  s               233      0.054439   6 C  s         
    97      0.045928   3 C  s                96      0.041038   3 C  s         
   189     -0.039677   5 C  s                12     -0.037468   1 C  px        
 
 Vector    6  Occ=1.000000D+00  E=-1.018432D+01
              MO Center=  8.3D-02, -1.3D+00,  2.9D-07, r^2= 3.5D-02
   Bfn.  Coefficient  Atom+Function         Bfn.  Coefficient  Atom+Function  
  ----- ------------  ---------------      ----- ------------  ---------------
   139      0.984285   4 C  s               141      0.057792   4 C  s         
    96     -0.045907   3 C  s               188     -0.045908   5 C  s         
   325      0.046004   9 H  s               143     -0.043505   4 C  s         
     4      0.040387   1 C  s                93     -0.039661   3 C  s         
   185     -0.039746   5 C  s               151      0.036018   4 C  py        
 
 Vector    7  Occ=1.000000D+00  E=-8.724604D-01
              MO Center= -6.3D-03,  9.9D-02,  3.2D-09, r^2= 2.0D+00
   Bfn.  Coefficient  Atom+Function         Bfn.  Coefficient  Atom+Function  
  ----- ------------  ---------------      ----- ------------  ---------------
     2      0.214063   1 C  s                48      0.202671   2 C  s         
   232      0.202654   6 C  s                94      0.195596   3 C  s         
   186      0.195579   5 C  s               140      0.188217   4 C  s         
    50      0.090235   2 C  s               234      0.090225   6 C  s         
    96      0.088095   3 C  s               188      0.088089   5 C  s         
 
 Vector    8  Occ=1.000000D+00  E=-7.627319D-01
              MO Center= -6.3D-03,  1.0D-01,  1.5D-08, r^2= 2.8D+00
   Bfn.  Coefficient  Atom+Function         Bfn.  Coefficient  Atom+Function  
  ----- ------------  ---------------      ----- ------------  ---------------
    48      0.250858   2 C  s               232     -0.250868   6 C  s         
    94      0.243819   3 C  s               186     -0.243826   5 C  s         
    50      0.146206   2 C  s               234     -0.146214   6 C  s         
   279     -0.129344   7 H  s               371      0.129349  11 H  s         
   150     -0.115525   4 C  px               97      0.110859   3 C  s         
 
 Vector    9  Occ=1.000000D+00  E=-7.537328D-01
              MO Center=  9.2D-03, -1.5D-01, -2.7D-08, r^2= 2.6D+00
   Bfn.  Coefficient  Atom+Function         Bfn.  Coefficient  Atom+Function  
  ----- ------------  ---------------      ----- ------------  ---------------
   140     -0.300919   4 C  s                 2      0.278554   1 C  s         
    94     -0.148872   3 C  s               186     -0.148864   5 C  s         
    48      0.148026   2 C  s               142     -0.147446   4 C  s         
   232      0.148016   6 C  s                96     -0.104902   3 C  s         
   188     -0.104900   5 C  s                 4      0.103035   1 C  s         
 
 Vector   10  Occ=1.000000D+00  E=-6.187396D-01
              MO Center= -2.5D-03,  3.9D-02,  5.5D-08, r^2= 3.6D+00
   Bfn.  Coefficient  Atom+Function         Bfn.  Coefficient  Atom+Function  
  ----- ------------  ---------------      ----- ------------  ---------------
    94     -0.208567   3 C  s               186      0.208562   5 C  s         
    48      0.199457   2 C  s               232     -0.199463   6 C  s         
    50      0.183367   2 C  s               234     -0.183374   6 C  s         
    96     -0.146980   3 C  s               188      0.146969   5 C  s         
     6     -0.127295   1 C  px              144      0.116927   4 C  px        
 
 Vector   11  Occ=1.000000D+00  E=-6.035488D-01
              MO Center=  5.4D-03, -8.7D-02, -5.0D-08, r^2= 3.5D+00
   Bfn.  Coefficient  Atom+Function         Bfn.  Coefficient  Atom+Function  
  ----- ------------  ---------------      ----- ------------  ---------------
   142      0.258354   4 C  s                 2      0.238939   1 C  s         
   140      0.218767   4 C  s                 4      0.198682   1 C  s         
    94     -0.138340   3 C  s               186     -0.138359   5 C  s         
    50     -0.122710   2 C  s               234     -0.122700   6 C  s         
    96     -0.119279   3 C  s               188     -0.119291   5 C  s         
 
 Vector   12  Occ=1.000000D+00  E=-5.277268D-01
              MO Center=  9.4D-03, -1.5D-01, -5.8D-08, r^2= 4.1D+00
   Bfn.  Coefficient  Atom+Function         Bfn.  Coefficient  Atom+Function  
  ----- ------------  ---------------      ----- ------------  ---------------
   148      0.159264   4 C  py              145      0.138838   4 C  py        
   324     -0.126840   9 H  s                55      0.105300   2 C  px        
   240     -0.104899   6 C  py              323     -0.100378   9 H  s         
   237     -0.096178   6 C  py              193     -0.094439   5 C  px        
   278     -0.094490   7 H  s               370     -0.094484  11 H  s         
 
 Vector   13  Occ=1.000000D+00  E=-4.645296D-01
              MO Center= -6.7D-03,  1.0D-01,  1.0D-07, r^2= 2.7D+00
   Bfn.  Coefficient  Atom+Function         Bfn.  Coefficient  Atom+Function  
  ----- ------------  ---------------      ----- ------------  ---------------
     9      0.189041   1 C  px                6      0.175363   1 C  px        
   147      0.172356   4 C  px              144      0.159073   4 C  px        
   239     -0.136869   6 C  px              194     -0.134751   5 C  py        
    56     -0.131374   2 C  py               55     -0.121399   2 C  px        
   191     -0.121433   5 C  py              236     -0.121874   6 C  px        
 
 Vector   14  Occ=1.000000D+00  E=-4.631573D-01
              MO Center=  1.0D-02, -1.6D-01, -7.1D-08, r^2= 4.8D+00
   Bfn.  Coefficient  Atom+Function         Bfn.  Coefficient  Atom+Function  
  ----- ------------  ---------------      ----- ------------  ---------------
     2      0.176557   1 C  s               301      0.136703   8 H  s         
   347      0.136678  10 H  s               140     -0.129403   4 C  s         
   193      0.127764   5 C  px              196      0.120324   5 C  px        
   101     -0.118803   3 C  px              190      0.118565   5 C  px        
    96      0.117500   3 C  s               104     -0.117399   3 C  px        
 
 Vector   15  Occ=1.000000D+00  E=-4.399768D-01
              MO Center= -1.3D-02,  2.1D-01,  7.5D-08, r^2= 4.0D+00
   Bfn.  Coefficient  Atom+Function         Bfn.  Coefficient  Atom+Function  
  ----- ------------  ---------------      ----- ------------  ---------------
   240      0.143967   6 C  py              102      0.139209   3 C  py        
   237      0.132906   6 C  py              278     -0.131463   7 H  s         
   370      0.131460  11 H  s                99      0.130193   3 C  py        
    55      0.129423   2 C  px               56     -0.128746   2 C  py        
   194     -0.126948   5 C  py               53     -0.119657   2 C  py        
 
 Vector   16  Occ=1.000000D+00  E=-3.990529D-01
              MO Center=  4.9D-02, -7.8D-01, -1.1D-08, r^2= 3.3D+00
   Bfn.  Coefficient  Atom+Function         Bfn.  Coefficient  Atom+Function  
  ----- ------------  ---------------      ----- ------------  ---------------
   148      0.233510   4 C  py              145      0.209191   4 C  py        
   324     -0.198593   9 H  s               151      0.172699   4 C  py        
   323     -0.154029   9 H  s                10      0.138647   1 C  py        
    13      0.120981   1 C  py              240      0.115208   6 C  py        
    56      0.109434   2 C  py                7      0.107929   1 C  py        
 
 Vector   17  Occ=1.000000D+00  E=-3.837053D-01
              MO Center= -7.7D-03,  1.2D-01, -2.2D-07, r^2= 2.7D+00
   Bfn.  Coefficient  Atom+Function         Bfn.  Coefficient  Atom+Function  
  ----- ------------  ---------------      ----- ------------  ---------------
    11      0.173428   1 C  pz               57      0.156392   2 C  pz        
   241      0.156380   6 C  pz              103      0.152215   3 C  pz        
   195      0.152203   5 C  pz              149      0.145876   4 C  pz        
     8      0.136807   1 C  pz               54      0.125769   2 C  pz        
   238      0.125760   6 C  pz              100      0.121719   3 C  pz        
 
 Vector   18  Occ=1.000000D+00  E=-3.659846D-01
              MO Center=  9.1D-03, -1.4D-01,  8.2D-08, r^2= 4.1D+00
   Bfn.  Coefficient  Atom+Function         Bfn.  Coefficient  Atom+Function  
  ----- ------------  ---------------      ----- ------------  ---------------
   147     -0.169315   4 C  px              101      0.165161   3 C  px        
   193      0.165081   5 C  px              144     -0.159866   4 C  px        
     9      0.149403   1 C  px               98      0.149440   3 C  px        
   190      0.149137   5 C  px                6      0.141583   1 C  px        
   196      0.135642   5 C  px              104      0.133522   3 C  px        
 
 Vector   19  Occ=1.000000D+00  E=-2.685140D-01
              MO Center=  9.1D-04, -1.5D-02,  8.1D-07, r^2= 3.0D+00
   Bfn.  Coefficient  Atom+Function         Bfn.  Coefficient  Atom+Function  
  ----- ------------  ---------------      ----- ------------  ---------------
    11      0.245300   1 C  pz              149     -0.238556   4 C  pz        
     8      0.192908   1 C  pz              146     -0.190710   4 C  pz        
    14      0.176327   1 C  pz              152     -0.171628   4 C  pz        
   103     -0.126598   3 C  pz              195     -0.126468   5 C  pz        
    57      0.114765   2 C  pz              241      0.114884   6 C  pz        
 
 Vector   20  Occ=1.000000D+00  E=-2.678706D-01
              MO Center= -3.8D-03,  6.1D-02, -6.8D-07, r^2= 3.1D+00
   Bfn.  Coefficient  Atom+Function         Bfn.  Coefficient  Atom+Function  
  ----- ------------  ---------------      ----- ------------  ---------------
   103      0.207440   3 C  pz              195     -0.207521   5 C  pz        
    57      0.203847   2 C  pz              241     -0.203783   6 C  pz        
   100      0.165271   3 C  pz              192     -0.165336   5 C  pz        
    54      0.163240   2 C  pz              238     -0.163190   6 C  pz        
    60      0.150531   2 C  pz              106      0.149950   3 C  pz        
 
 Vector   21  Occ=1.000000D+00  E=-2.484188D-01
              MO Center= -8.2D-02,  1.3D+00,  1.0D-08, r^2= 2.3D+00
   Bfn.  Coefficient  Atom+Function         Bfn.  Coefficient  Atom+Function  
  ----- ------------  ---------------      ----- ------------  ---------------
    10      0.385995   1 C  py               13      0.337691   1 C  py        
     5      0.335240   1 C  s                 7      0.299345   1 C  py        
     4      0.279451   1 C  s                 2      0.138350   1 C  s         
   243     -0.136203   6 C  py               59     -0.134147   2 C  py        
   102      0.112396   3 C  py              194      0.112408   5 C  py        
 
 Vector   22  Occ=0.000000D+00  E=-2.600871D-02
              MO Center= -4.3D-03,  6.8D-02, -2.0D-07, r^2= 4.3D+00
   Bfn.  Coefficient  Atom+Function         Bfn.  Coefficient  Atom+Function  
  ----- ------------  ---------------      ----- ------------  ---------------
   109     -0.320089   3 C  pz              201      0.320069   5 C  pz        
    63      0.314636   2 C  pz              247     -0.314623   6 C  pz        
    60      0.226969   2 C  pz              244     -0.226962   6 C  pz        
   106     -0.223732   3 C  pz              198      0.223719   5 C  pz        
    57      0.218765   2 C  pz              241     -0.218761   6 C  pz        
 
 Vector   23  Occ=0.000000D+00  E=-1.861322D-02
              MO Center=  3.1D-03, -5.0D-02,  3.5D-07, r^2= 4.3D+00
   Bfn.  Coefficient  Atom+Function         Bfn.  Coefficient  Atom+Function  
  ----- ------------  ---------------      ----- ------------  ---------------
   155      0.439589   4 C  pz               17      0.373553   1 C  pz        
   152      0.273948   4 C  pz               11      0.258952   1 C  pz        
   149      0.250783   4 C  pz               14      0.240482   1 C  pz        
   109     -0.226070   3 C  pz              201     -0.226080   5 C  pz        
     8      0.200623   1 C  pz               63     -0.198211   2 C  pz        
 
 Vector   24  Occ=0.000000D+00  E=-1.011001D-02
              MO Center=  6.0D-02, -9.5D-01, -8.1D-07, r^2= 2.0D+01
   Bfn.  Coefficient  Atom+Function         Bfn.  Coefficient  Atom+Function  
  ----- ------------  ---------------      ----- ------------  ---------------
     5      1.446686   1 C  s               279     -0.976466   7 H  s         
   371     -0.976467  11 H  s               326     -0.741574   9 H  s         
   303     -0.730325   8 H  s               349     -0.730188  10 H  s         
   302     -0.650227   8 H  s               348     -0.650235  10 H  s         
   325     -0.588330   9 H  s                51      0.561495   2 C  s         
 
 Vector   25  Occ=0.000000D+00  E= 4.381994D-03
              MO Center=  1.6D-02, -2.6D-01,  9.0D-07, r^2= 2.7D+01
   Bfn.  Coefficient  Atom+Function         Bfn.  Coefficient  Atom+Function  
  ----- ------------  ---------------      ----- ------------  ---------------
    51      2.731898   2 C  s               235     -2.731641   6 C  s         
    97      2.672871   3 C  s               189     -2.672877   5 C  s         
   303      1.996693   8 H  s               349     -1.996808  10 H  s         
    15      1.866838   1 C  px              153      1.807502   4 C  px        
   280      1.540132   7 H  s               372     -1.540023  11 H  s         
 
 Vector   26  Occ=0.000000D+00  E= 8.728806D-03
              MO Center=  4.6D-03, -7.3D-02,  1.1D-06, r^2= 2.7D+01
   Bfn.  Coefficient  Atom+Function         Bfn.  Coefficient  Atom+Function  
  ----- ------------  ---------------      ----- ------------  ---------------
   143      6.245552   4 C  s                51     -4.009992   2 C  s         
   235     -4.010155   6 C  s               326      2.932223   9 H  s         
     5      2.589881   1 C  s               280     -2.388395   7 H  s         
   372     -2.388389  11 H  s               154      1.947132   4 C  py        
   246      1.934076   6 C  py               62      1.829920   2 C  py        
 
 Vector   27  Occ=0.000000D+00  E= 2.670390D-02
              MO Center= -1.5D-02,  2.4D-01,  2.1D-06, r^2= 3.1D+01
   Bfn.  Coefficient  Atom+Function         Bfn.  Coefficient  Atom+Function  
  ----- ------------  ---------------      ----- ------------  ---------------
   280      3.932730   7 H  s               372     -3.932810  11 H  s         
    51      3.662164   2 C  s               235     -3.662524   6 C  s         
   303     -3.602273   8 H  s               349      3.602129  10 H  s         
    61      2.222519   2 C  px               97     -2.192607   3 C  s         
   189      2.192612   5 C  s               199     -2.041339   5 C  px        
 
 Vector   28  Occ=0.000000D+00  E= 3.221618D-02
              MO Center=  3.9D-02, -6.2D-01, -1.9D-06, r^2= 2.9D+01
   Bfn.  Coefficient  Atom+Function         Bfn.  Coefficient  Atom+Function  
  ----- ------------  ---------------      ----- ------------  ---------------
     5      6.396886   1 C  s               326     -4.998337   9 H  s         
   303      3.725427   8 H  s               349      3.725744  10 H  s         
    97     -2.179757   3 C  s               154     -2.176330   4 C  py        
   189     -2.179391   5 C  s               199     -1.647622   5 C  px        
   245      1.634023   6 C  px               61     -1.580535   2 C  px        
 
 Vector   29  Occ=0.000000D+00  E= 4.329335D-02
              MO Center=  1.4D-02, -2.2D-01,  2.6D-06, r^2= 1.3D+01
   Bfn.  Coefficient  Atom+Function         Bfn.  Coefficient  Atom+Function  
  ----- ------------  ---------------      ----- ------------  ---------------
   155      0.598806   4 C  pz               63      0.576402   2 C  pz        
   247      0.576361   6 C  pz               17     -0.260428   1 C  pz        
    60     -0.154926   2 C  pz              244     -0.154948   6 C  pz        
    51      0.139048   2 C  s               235     -0.138856   6 C  s         
    97     -0.132176   3 C  s               189      0.132161   5 C  s         
 
 Vector   30  Occ=0.000000D+00  E= 5.496321D-02
              MO Center=  9.4D-03, -1.5D-01, -3.1D-07, r^2= 1.5D+01
   Bfn.  Coefficient  Atom+Function         Bfn.  Coefficient  Atom+Function  
  ----- ------------  ---------------      ----- ------------  ---------------
     5     10.710661   1 C  s               143      5.282432   4 C  s         
    51     -4.488701   2 C  s               235     -4.488643   6 C  s         
   303     -2.801376   8 H  s               349     -2.801311  10 H  s         
   326      2.060757   9 H  s               199      2.006779   5 C  px        
    97     -1.952096   3 C  s               189     -1.951985   5 C  s         
 
 Vector   31  Occ=0.000000D+00  E= 6.334678D-02
              MO Center= -4.1D-02,  6.5D-01,  1.7D-05, r^2= 2.8D+01
   Bfn.  Coefficient  Atom+Function         Bfn.  Coefficient  Atom+Function  
  ----- ------------  ---------------      ----- ------------  ---------------
     5     24.360517   1 C  s                51     -9.844804   2 C  s         
   235     -9.844656   6 C  s               143      7.613337   4 C  s         
    97     -6.507125   3 C  s               189     -6.507070   5 C  s         
   326      5.860678   9 H  s               154      4.767483   4 C  py        
   303     -4.679311   8 H  s               349     -4.679465  10 H  s         
 
 Vector   32  Occ=0.000000D+00  E= 6.574859D-02
              MO Center=  1.6D-03, -2.4D-02,  2.3D-06, r^2= 1.8D+01
   Bfn.  Coefficient  Atom+Function         Bfn.  Coefficient  Atom+Function  
  ----- ------------  ---------------      ----- ------------  ---------------
   109      0.976107   3 C  pz              201     -0.976093   5 C  pz        
     5     -0.882049   1 C  s                63      0.769875   2 C  pz        
   247     -0.769842   6 C  pz              169     -0.676446   4 C  d  1      
    31     -0.583128   1 C  d  1            106      0.492284   3 C  pz        
   198     -0.492293   5 C  pz               60      0.488076   2 C  pz        
 
 Vector   33  Occ=0.000000D+00  E= 6.826244D-02
              MO Center= -1.2D-02,  1.9D-01, -1.6D-05, r^2= 1.8D+01
   Bfn.  Coefficient  Atom+Function         Bfn.  Coefficient  Atom+Function  
  ----- ------------  ---------------      ----- ------------  ---------------
    63      1.024337   2 C  pz              247      1.024309   6 C  pz        
   109     -0.811968   3 C  pz              201     -0.811854   5 C  pz        
   155     -0.750719   4 C  pz               14      0.629630   1 C  pz        
   152     -0.617818   4 C  pz               17      0.458646   1 C  pz        
   213     -0.449554   5 C  d -1            121     -0.405719   3 C  d -1      
 
 Vector   34  Occ=0.000000D+00  E= 7.645695D-02
              MO Center=  9.2D-03, -1.6D-01, -1.6D-06, r^2= 3.4D+01
   Bfn.  Coefficient  Atom+Function         Bfn.  Coefficient  Atom+Function  
  ----- ------------  ---------------      ----- ------------  ---------------
    51     13.865100   2 C  s               235    -13.867491   6 C  s         
    97     12.411116   3 C  s               189    -12.411902   5 C  s         
    15      7.678566   1 C  px              153      7.709503   4 C  px        
   107      4.764692   3 C  px              303      4.691738   8 H  s         
   349     -4.691050  10 H  s               199      4.461757   5 C  px        
 
 Vector   35  Occ=0.000000D+00  E= 7.792172D-02
              MO Center=  2.1D-01, -3.3D+00, -2.6D-06, r^2= 2.1D+01
   Bfn.  Coefficient  Atom+Function         Bfn.  Coefficient  Atom+Function  
  ----- ------------  ---------------      ----- ------------  ---------------
   143     18.275306   4 C  s                51    -13.447757   2 C  s         
   235    -13.442929   6 C  s               326      7.026911   9 H  s         
    62      5.654213   2 C  py              246      5.678009   6 C  py        
   200      5.394976   5 C  py              154      5.274254   4 C  py        
   108      5.037974   3 C  py              279      4.190675   7 H  s         
 
 Vector   36  Occ=0.000000D+00  E= 8.155252D-02
              MO Center= -8.8D-02,  1.4D+00,  6.0D-06, r^2= 2.8D+01
   Bfn.  Coefficient  Atom+Function         Bfn.  Coefficient  Atom+Function  
  ----- ------------  ---------------      ----- ------------  ---------------
   143     20.710375   4 C  s                51     -8.945014   2 C  s         
   235     -8.947385   6 C  s               246      5.260459   6 C  py        
    62      5.166440   2 C  py              325     -4.965156   9 H  s         
   280     -4.564045   7 H  s               372     -4.564483  11 H  s         
   200      4.483134   5 C  py              326      4.499128   9 H  s         
 
 Vector   37  Occ=0.000000D+00  E= 8.317340D-02
              MO Center=  4.6D-02, -7.3D-01, -4.5D-07, r^2= 2.2D+01
   Bfn.  Coefficient  Atom+Function         Bfn.  Coefficient  Atom+Function  
  ----- ------------  ---------------      ----- ------------  ---------------
    97      4.944287   3 C  s               189     -4.944594   5 C  s         
    51     -3.132791   2 C  s               235      3.135285   6 C  s         
   108      2.796584   3 C  py              303      2.804506   8 H  s         
   349     -2.804533  10 H  s               200     -2.682678   5 C  py        
   153      2.603558   4 C  px               96      2.073255   3 C  s         
 
 Vector   38  Occ=0.000000D+00  E= 9.539932D-02
              MO Center= -5.5D-02,  8.8D-01, -2.9D-07, r^2= 3.1D+01
   Bfn.  Coefficient  Atom+Function         Bfn.  Coefficient  Atom+Function  
  ----- ------------  ---------------      ----- ------------  ---------------
    51     17.687649   2 C  s               235    -17.689350   6 C  s         
   280      7.217859   7 H  s               372     -7.217883  11 H  s         
    97     -6.913197   3 C  s               189      6.913450   5 C  s         
   108     -6.462459   3 C  py              303     -6.202107   8 H  s         
   349      6.201596  10 H  s               200      5.920105   5 C  py        
 
 Vector   39  Occ=0.000000D+00  E= 1.017998D-01
              MO Center= -7.1D-03,  1.1D-01, -3.3D-07, r^2= 1.9D+01
   Bfn.  Coefficient  Atom+Function         Bfn.  Coefficient  Atom+Function  
  ----- ------------  ---------------      ----- ------------  ---------------
    51     13.735265   2 C  s               235    -13.734316   6 C  s         
    97     10.884014   3 C  s               189    -10.884376   5 C  s         
    15     10.000370   1 C  px              153      9.716559   4 C  px        
   246     -6.096146   6 C  py              108     -6.023500   3 C  py        
   200      5.990327   5 C  py               62      5.909786   2 C  py        
 
 Vector   40  Occ=0.000000D+00  E= 1.064759D-01
              MO Center= -8.0D-03,  1.3D-01,  7.7D-06, r^2= 2.1D+01
   Bfn.  Coefficient  Atom+Function         Bfn.  Coefficient  Atom+Function  
  ----- ------------  ---------------      ----- ------------  ---------------
   143     18.276564   4 C  s                51     -9.938232   2 C  s         
   235     -9.938226   6 C  s                 5     -9.462415   1 C  s         
   107     -8.759018   3 C  px              199      7.977837   5 C  px        
   245     -7.043913   6 C  px              200      6.727026   5 C  py        
    61      6.488945   2 C  px              108      5.672343   3 C  py        
 
 Vector   41  Occ=0.000000D+00  E= 1.082035D-01
              MO Center= -1.0D-02,  1.6D-01,  1.4D-06, r^2= 2.2D+01
   Bfn.  Coefficient  Atom+Function         Bfn.  Coefficient  Atom+Function  
  ----- ------------  ---------------      ----- ------------  ---------------
    63      3.391072   2 C  pz              247     -3.391161   6 C  pz        
   109     -3.362425   3 C  pz              201      3.362787   5 C  pz        
    60      0.696861   2 C  pz              244     -0.696883   6 C  pz        
   106     -0.636633   3 C  pz              198      0.636709   5 C  pz        
    77     -0.380306   2 C  d  1            215      0.361172   5 C  d  1      
 
 Vector   42  Occ=0.000000D+00  E= 1.089657D-01
              MO Center=  3.0D-02, -4.7D-01, -6.5D-06, r^2= 2.1D+01
   Bfn.  Coefficient  Atom+Function         Bfn.  Coefficient  Atom+Function  
  ----- ------------  ---------------      ----- ------------  ---------------
   155      5.322128   4 C  pz              109     -3.443044   3 C  pz        
   201     -3.442787   5 C  pz               17      2.511336   1 C  pz        
   152      0.983704   4 C  pz              106     -0.603430   3 C  pz        
   198     -0.603392   5 C  pz              167      0.569517   4 C  d -1      
    14      0.504730   1 C  pz               63     -0.475656   2 C  pz        
 
 Vector   43  Occ=0.000000D+00  E= 1.094999D-01
              MO Center=  2.9D-02, -4.5D-01,  2.3D-05, r^2= 2.7D+01
   Bfn.  Coefficient  Atom+Function         Bfn.  Coefficient  Atom+Function  
  ----- ------------  ---------------      ----- ------------  ---------------
   326      7.669382   9 H  s               154      7.056312   4 C  py        
   303     -6.474592   8 H  s               349     -6.474934  10 H  s         
   143     -5.606310   4 C  s               108     -4.429632   3 C  py        
   200     -4.184011   5 C  py               62     -4.156126   2 C  py        
   246     -4.136755   6 C  py                4      3.925064   1 C  s         
 
 Vector   44  Occ=0.000000D+00  E= 1.178166D-01
              MO Center= -4.1D-02,  6.5D-01, -2.2D-05, r^2= 1.4D+01
   Bfn.  Coefficient  Atom+Function         Bfn.  Coefficient  Atom+Function  
  ----- ------------  ---------------      ----- ------------  ---------------
    17      6.879736   1 C  pz               63     -6.022995   2 C  pz        
   247     -6.022830   6 C  pz              109      5.053036   3 C  pz        
   201      5.052860   5 C  pz              155     -4.823446   4 C  pz        
    14      1.235910   1 C  pz               60     -1.020630   2 C  pz        
   244     -1.020595   6 C  pz              106      0.892407   3 C  pz        
 
 Vector   45  Occ=0.000000D+00  E= 1.264077D-01
              MO Center= -1.8D-02,  2.9D-01, -9.1D-07, r^2= 2.5D+01
   Bfn.  Coefficient  Atom+Function         Bfn.  Coefficient  Atom+Function  
  ----- ------------  ---------------      ----- ------------  ---------------
    51      7.589529   2 C  s               235     -7.589436   6 C  s         
   107      7.203911   3 C  px              199      7.126700   5 C  px        
   245     -7.037040   6 C  px               61     -6.926666   2 C  px        
    15      6.443472   1 C  px               97     -6.195298   3 C  s         
   189      6.195375   5 C  s               153     -5.818315   4 C  px        
 
 Vector   46  Occ=0.000000D+00  E= 1.274498D-01
              MO Center= -1.2D-02,  1.9D-01, -3.3D-06, r^2= 2.6D+01
   Bfn.  Coefficient  Atom+Function         Bfn.  Coefficient  Atom+Function  
  ----- ------------  ---------------      ----- ------------  ---------------
   154     -8.032058   4 C  py               16      7.424922   1 C  py        
   108      6.889138   3 C  py               62     -6.576306   2 C  py        
   200      6.571297   5 C  py              246     -6.383436   6 C  py        
   326     -4.051418   9 H  s                 5      3.565490   1 C  s         
   303      3.164618   8 H  s               349      3.164975  10 H  s         
 
 Vector   47  Occ=0.000000D+00  E= 1.609544D-01
              MO Center= -8.5D-03,  1.4D-01,  2.2D-05, r^2= 1.7D+01
   Bfn.  Coefficient  Atom+Function         Bfn.  Coefficient  Atom+Function  
  ----- ------------  ---------------      ----- ------------  ---------------
    17      8.192860   1 C  pz               63     -8.004496   2 C  pz        
   247     -8.004605   6 C  pz              155     -7.856648   4 C  pz        
   109      7.771348   3 C  pz              201      7.771457   5 C  pz        
    60     -1.191865   2 C  pz              106      1.192779   3 C  pz        
   198      1.192805   5 C  pz              244     -1.191890   6 C  pz        
 
 Vector   48  Occ=0.000000D+00  E= 1.660210D-01
              MO Center= -8.9D-02,  1.4D+00, -1.9D-05, r^2= 2.2D+01
   Bfn.  Coefficient  Atom+Function         Bfn.  Coefficient  Atom+Function  
  ----- ------------  ---------------      ----- ------------  ---------------
     5     59.212519   1 C  s                51    -25.982292   2 C  s         
   143     25.963702   4 C  s               235    -25.982870   6 C  s         
    97    -14.417441   3 C  s               189    -14.416673   5 C  s         
   154      7.428755   4 C  py              245      6.814322   6 C  px        
    61     -6.399506   2 C  px              326      6.156367   9 H  s         
 
 Vector   49  Occ=0.000000D+00  E= 1.754209D-01
              MO Center=  2.5D-02, -3.9D-01,  9.6D-06, r^2= 1.1D+01
   Bfn.  Coefficient  Atom+Function         Bfn.  Coefficient  Atom+Function  
  ----- ------------  ---------------      ----- ------------  ---------------
   335      1.104468   9 H  pz              312      1.079150   8 H  pz        
   358      1.079098  10 H  pz              289      0.973079   7 H  pz        
   381      0.973035  11 H  pz               17      0.959810   1 C  pz        
    63     -0.885291   2 C  pz              247     -0.885260   6 C  pz        
   106     -0.842936   3 C  pz              198     -0.842879   5 C  pz        
 
 Vector   50  Occ=0.000000D+00  E= 1.864250D-01
              MO Center=  3.4D-02, -5.5D-01, -5.0D-06, r^2= 1.5D+01
   Bfn.  Coefficient  Atom+Function         Bfn.  Coefficient  Atom+Function  
  ----- ------------  ---------------      ----- ------------  ---------------
     5     15.509158   1 C  s                97     -7.273544   3 C  s         
   189     -7.273089   5 C  s                51     -4.473866   2 C  s         
   235     -4.473644   6 C  s               325      4.425875   9 H  s         
    62     -4.045475   2 C  py              154      3.980380   4 C  py        
   246     -3.823444   6 C  py              302      3.261371   8 H  s         
 
 Vector   51  Occ=0.000000D+00  E= 1.980401D-01
              MO Center= -3.0D-02,  4.7D-01,  8.4D-06, r^2= 2.3D+01
   Bfn.  Coefficient  Atom+Function         Bfn.  Coefficient  Atom+Function  
  ----- ------------  ---------------      ----- ------------  ---------------
    51     44.606856   2 C  s               235    -44.594190   6 C  s         
    97     25.196976   3 C  s               189    -25.200399   5 C  s         
    15     18.496064   1 C  px              153     17.067202   4 C  px        
   302    -14.009462   8 H  s               348     14.010591  10 H  s         
   200      9.226585   5 C  py              108     -8.514066   3 C  py        
 
 Vector   52  Occ=0.000000D+00  E= 1.984401D-01
              MO Center=  4.6D-02, -7.3D-01, -9.0D-06, r^2= 2.3D+01
   Bfn.  Coefficient  Atom+Function         Bfn.  Coefficient  Atom+Function  
  ----- ------------  ---------------      ----- ------------  ---------------
   143     61.321685   4 C  s                51    -34.527812   2 C  s         
   235    -34.544008   6 C  s               325    -16.862786   9 H  s         
    62     14.721787   2 C  py              246     14.449237   6 C  py        
   200     13.770177   5 C  py              108     12.558495   3 C  py        
     5    -11.578986   1 C  s               279     11.180370   7 H  s         
 
 Vector   53  Occ=0.000000D+00  E= 2.154347D-01
              MO Center=  8.8D-02, -1.4D+00,  3.2D-06, r^2= 1.5D+01
   Bfn.  Coefficient  Atom+Function         Bfn.  Coefficient  Atom+Function  
  ----- ------------  ---------------      ----- ------------  ---------------
    97     13.876425   3 C  s               189    -13.875936   5 C  s         
    96      6.553720   3 C  s               188     -6.553793   5 C  s         
   153      6.321988   4 C  px              279     -5.138903   7 H  s         
   371      5.138640  11 H  s               303      4.739850   8 H  s         
   349     -4.739594  10 H  s               246     -4.495385   6 C  py        
 
 Vector   54  Occ=0.000000D+00  E= 2.182733D-01
              MO Center=  1.8D-02, -2.8D-01, -6.0D-06, r^2= 1.5D+01
   Bfn.  Coefficient  Atom+Function         Bfn.  Coefficient  Atom+Function  
  ----- ------------  ---------------      ----- ------------  ---------------
   143     25.783646   4 C  s                51    -17.781228   2 C  s         
   235    -17.792699   6 C  s                 5     15.977520   1 C  s         
    16     -6.446826   1 C  py              325     -6.047788   9 H  s         
    62      4.839840   2 C  py              246      4.722514   6 C  py        
   279      3.739892   7 H  s               371      3.740486  11 H  s         
 
 Vector   55  Occ=0.000000D+00  E= 2.191116D-01
              MO Center=  5.3D-03, -8.3D-02,  4.7D-06, r^2= 1.5D+01
   Bfn.  Coefficient  Atom+Function         Bfn.  Coefficient  Atom+Function  
  ----- ------------  ---------------      ----- ------------  ---------------
    51     19.813806   2 C  s               235    -19.804546   6 C  s         
   108     -8.473118   3 C  py              200      8.114879   5 C  py        
    15      7.530400   1 C  px              302     -6.934639   8 H  s         
   348      6.934672  10 H  s               153      6.307325   4 C  px        
   246     -4.033467   6 C  py               62      3.897448   2 C  py        
 
 Vector   56  Occ=0.000000D+00  E= 2.301179D-01
              MO Center= -1.8D-02,  2.9D-01, -1.6D-05, r^2= 1.8D+01
   Bfn.  Coefficient  Atom+Function         Bfn.  Coefficient  Atom+Function  
  ----- ------------  ---------------      ----- ------------  ---------------
   199      4.914519   5 C  px              107      4.648262   3 C  px        
   153     -3.564231   4 C  px               50     -3.270164   2 C  s         
   234      3.269766   6 C  s               303      3.159735   8 H  s         
   349     -3.159082  10 H  s                15     -2.625730   1 C  px        
   108      2.424826   3 C  py               59      1.954682   2 C  py        
 
 Vector   57  Occ=0.000000D+00  E= 2.311960D-01
              MO Center= -5.6D-05,  1.0D-03, -1.9D-06, r^2= 1.6D+01
   Bfn.  Coefficient  Atom+Function         Bfn.  Coefficient  Atom+Function  
  ----- ------------  ---------------      ----- ------------  ---------------
   106      2.142200   3 C  pz              198     -2.142207   5 C  pz        
    60      2.046440   2 C  pz              244     -2.046404   6 C  pz        
   312     -1.817735   8 H  pz              358      1.817785  10 H  pz        
   289     -1.720167   7 H  pz              381      1.720124  11 H  pz        
   169     -1.379062   4 C  d  1             31     -1.246989   1 C  d  1      
 
 Vector   58  Occ=0.000000D+00  E= 2.354322D-01
              MO Center= -1.3D-02,  2.1D-01, -6.8D-07, r^2= 1.6D+01
   Bfn.  Coefficient  Atom+Function         Bfn.  Coefficient  Atom+Function  
  ----- ------------  ---------------      ----- ------------  ---------------
   143     14.932884   4 C  s                51    -10.474028   2 C  s         
   235    -10.464652   6 C  s               107     -8.188620   3 C  px        
   199      7.759726   5 C  px               61      5.430533   2 C  px        
   245     -5.309126   6 C  px              303     -4.417473   8 H  s         
   349     -4.419043  10 H  s                 5      4.069065   1 C  s         
 
 Vector   59  Occ=0.000000D+00  E= 2.364896D-01
              MO Center= -4.5D-03,  7.4D-02, -2.7D-06, r^2= 1.7D+01
   Bfn.  Coefficient  Atom+Function         Bfn.  Coefficient  Atom+Function  
  ----- ------------  ---------------      ----- ------------  ---------------
    97    -33.187844   3 C  s               189     33.188323   5 C  s         
    51     31.558285   2 C  s               235    -31.562175   6 C  s         
    96    -14.385598   3 C  s               188     14.385013   5 C  s         
   279     10.793910   7 H  s               371    -10.792896  11 H  s         
   302    -10.651745   8 H  s               348     10.651573  10 H  s         
 
 Vector   60  Occ=0.000000D+00  E= 2.434524D-01
              MO Center=  2.7D-03, -4.3D-02,  1.7D-05, r^2= 1.5D+01
   Bfn.  Coefficient  Atom+Function         Bfn.  Coefficient  Atom+Function  
  ----- ------------  ---------------      ----- ------------  ---------------
   152      3.413616   4 C  pz               14     -3.025408   1 C  pz        
   289      2.170596   7 H  pz              381      2.170609  11 H  pz        
   335     -2.124899   9 H  pz              261      2.001517   6 C  d  1      
    77     -1.986829   2 C  d  1             63     -1.597951   2 C  pz        
   247     -1.597879   6 C  pz              155      1.369930   4 C  pz        
 
 Vector   61  Occ=0.000000D+00  E= 2.594966D-01
              MO Center=  3.8D-02, -6.0D-01, -1.9D-06, r^2= 1.7D+01
   Bfn.  Coefficient  Atom+Function         Bfn.  Coefficient  Atom+Function  
  ----- ------------  ---------------      ----- ------------  ---------------
     5      8.711142   1 C  s               108     -6.644810   3 C  py        
   200     -6.055186   5 C  py              303     -5.178886   8 H  s         
   349     -5.178824  10 H  s               199      5.078021   5 C  px        
   197     -4.837724   5 C  py              143     -4.800315   4 C  s         
   105     -4.735999   3 C  py              154      4.361531   4 C  py        
 
 Vector   62  Occ=0.000000D+00  E= 2.620257D-01
              MO Center=  6.8D-02, -1.1D+00,  1.7D-06, r^2= 1.7D+01
   Bfn.  Coefficient  Atom+Function         Bfn.  Coefficient  Atom+Function  
  ----- ------------  ---------------      ----- ------------  ---------------
     5     18.959128   1 C  s               154     15.379702   4 C  py        
   143     15.153279   4 C  s                51    -14.561852   2 C  s         
   235    -14.562975   6 C  s               326      9.186944   9 H  s         
     4      6.019672   1 C  s               108     -4.775994   3 C  py        
    97     -4.660437   3 C  s               189     -4.659112   5 C  s         
 
 Vector   63  Occ=0.000000D+00  E= 2.676651D-01
              MO Center= -2.7D-02,  4.3D-01, -3.5D-06, r^2= 2.0D+01
   Bfn.  Coefficient  Atom+Function         Bfn.  Coefficient  Atom+Function  
  ----- ------------  ---------------      ----- ------------  ---------------
    51     20.195321   2 C  s               235    -20.195146   6 C  s         
    97    -11.911387   3 C  s               189     11.911741   5 C  s         
    61     11.016947   2 C  px              245     10.266010   6 C  px        
    96     -8.750214   3 C  s               188      8.750375   5 C  s         
   279      8.757847   7 H  s               371     -8.758093  11 H  s         
 
 Vector   64  Occ=0.000000D+00  E= 2.747977D-01
              MO Center= -1.5D-03,  2.3D-02, -3.9D-08, r^2= 1.4D+01
   Bfn.  Coefficient  Atom+Function         Bfn.  Coefficient  Atom+Function  
  ----- ------------  ---------------      ----- ------------  ---------------
   143      8.951295   4 C  s                 5      8.705273   1 C  s         
   154      5.769195   4 C  py              279     -5.654937   7 H  s         
   371     -5.654522  11 H  s               302     -4.648816   8 H  s         
   348     -4.648407  10 H  s               325     -4.357152   9 H  s         
    16     -4.033702   1 C  py              246      3.262819   6 C  py        
 
 Vector   65  Occ=0.000000D+00  E= 2.829768D-01
              MO Center= -1.2D-02,  1.8D-01, -4.4D-07, r^2= 1.6D+01
   Bfn.  Coefficient  Atom+Function         Bfn.  Coefficient  Atom+Function  
  ----- ------------  ---------------      ----- ------------  ---------------
    12      9.530419   1 C  px               97      8.892622   3 C  s         
   189     -8.892659   5 C  s               302      8.095581   8 H  s         
   348     -8.095181  10 H  s                51     -8.015247   2 C  s         
   235      8.014717   6 C  s               199      7.629983   5 C  px        
   107      7.158081   3 C  px              150      6.193903   4 C  px        
 
 Vector   66  Occ=0.000000D+00  E= 2.954357D-01
              MO Center= -3.4D-03,  5.3D-02,  3.1D-06, r^2= 1.6D+01
   Bfn.  Coefficient  Atom+Function         Bfn.  Coefficient  Atom+Function  
  ----- ------------  ---------------      ----- ------------  ---------------
    63      3.198786   2 C  pz              109     -3.186091   3 C  pz        
   201      3.185691   5 C  pz              247     -3.198556   6 C  pz        
   289     -2.277785   7 H  pz              381      2.277813  11 H  pz        
    60      2.254891   2 C  pz              244     -2.254889   6 C  pz        
   312      2.260362   8 H  pz              358     -2.260261  10 H  pz        
 
 Vector   67  Occ=0.000000D+00  E= 2.962844D-01
              MO Center= -6.0D-02,  9.6D-01, -1.3D-06, r^2= 1.4D+01
   Bfn.  Coefficient  Atom+Function         Bfn.  Coefficient  Atom+Function  
  ----- ------------  ---------------      ----- ------------  ---------------
     4     10.424202   1 C  s                59     -5.739971   2 C  py        
   243     -5.631261   6 C  py                5      5.526649   1 C  s         
   105     -5.526215   3 C  py              197     -5.138020   5 C  py        
    16      4.272492   1 C  py              279     -4.183649   7 H  s         
   371     -4.183405  11 H  s                13      3.912609   1 C  py        
 
 Vector   68  Occ=0.000000D+00  E= 3.080395D-01
              MO Center=  1.7D-02, -2.7D-01, -3.2D-07, r^2= 1.5D+01
   Bfn.  Coefficient  Atom+Function         Bfn.  Coefficient  Atom+Function  
  ----- ------------  ---------------      ----- ------------  ---------------
   155      5.178022   4 C  pz               14      4.363353   1 C  pz        
   109     -3.739406   3 C  pz              201     -3.739550   5 C  pz        
   335     -2.710429   9 H  pz               60     -2.049423   2 C  pz        
   244     -2.049314   6 C  pz              152      1.852467   4 C  pz        
    17      1.841762   1 C  pz               29     -1.719274   1 C  d -1      
 
 Vector   69  Occ=0.000000D+00  E= 3.150325D-01
              MO Center=  4.7D-03, -7.3D-02,  2.0D-06, r^2= 9.1D+00
   Bfn.  Coefficient  Atom+Function         Bfn.  Coefficient  Atom+Function  
  ----- ------------  ---------------      ----- ------------  ---------------
   261      1.252266   6 C  d  1             77      1.132518   2 C  d  1      
   169     -1.084253   4 C  d  1             75     -1.023831   2 C  d -1      
   259      0.873638   6 C  d -1            289     -0.720512   7 H  pz        
   381      0.720514  11 H  pz               31      0.634333   1 C  d  1      
   142     -0.561491   4 C  s                50      0.431564   2 C  s         
 
 Vector   70  Occ=0.000000D+00  E= 3.284705D-01
              MO Center=  3.9D-02, -6.2D-01,  7.8D-06, r^2= 1.5D+01
   Bfn.  Coefficient  Atom+Function         Bfn.  Coefficient  Atom+Function  
  ----- ------------  ---------------      ----- ------------  ---------------
   142     12.142053   4 C  s                96      8.716192   3 C  s         
   188      8.716337   5 C  s               151     -6.837280   4 C  py        
   325     -5.845576   9 H  s                 4     -5.239146   1 C  s         
   334     -5.006199   9 H  py                5      4.904548   1 C  s         
   302     -4.389081   8 H  s               348     -4.388501  10 H  s         
 
 Vector   71  Occ=0.000000D+00  E= 3.347587D-01
              MO Center= -1.6D-03,  2.5D-02,  1.2D-06, r^2= 7.7D+00
   Bfn.  Coefficient  Atom+Function         Bfn.  Coefficient  Atom+Function  
  ----- ------------  ---------------      ----- ------------  ---------------
   289      2.029248   7 H  pz              381      2.029394  11 H  pz        
   335      1.839530   9 H  pz               14     -1.773212   1 C  pz        
   155     -1.702440   4 C  pz               63     -1.544564   2 C  pz        
   247     -1.544580   6 C  pz               77     -1.512133   2 C  d  1      
   261      1.412041   6 C  d  1            106     -1.285512   3 C  pz        
 
 Vector   72  Occ=0.000000D+00  E= 3.432811D-01
              MO Center=  2.3D-02, -3.7D-01, -2.4D-05, r^2= 1.2D+01
   Bfn.  Coefficient  Atom+Function         Bfn.  Coefficient  Atom+Function  
  ----- ------------  ---------------      ----- ------------  ---------------
   169      3.257371   4 C  d  1            143      3.096118   4 C  s         
    31      2.675276   1 C  d  1            312     -2.455265   8 H  pz        
   358      2.454955  10 H  pz              123      2.161896   3 C  d  1      
   215      2.121729   5 C  d  1            325     -1.829108   9 H  s         
   279      1.795522   7 H  s               371      1.795819  11 H  s         
 
 Vector   73  Occ=0.000000D+00  E= 3.449598D-01
              MO Center= -3.4D-02,  5.4D-01, -6.5D-06, r^2= 1.2D+01
   Bfn.  Coefficient  Atom+Function         Bfn.  Coefficient  Atom+Function  
  ----- ------------  ---------------      ----- ------------  ---------------
   143     23.516621   4 C  s               325    -12.893047   9 H  s         
   279     11.767655   7 H  s               371     11.770801  11 H  s         
    51    -11.674297   2 C  s               235    -11.681943   6 C  s         
     5     -7.586579   1 C  s               197     -6.834235   5 C  py        
   105     -6.715552   3 C  py              243     -5.966873   6 C  py        
 
 Vector   74  Occ=0.000000D+00  E= 3.477399D-01
              MO Center=  1.4D-02, -2.2D-01,  4.8D-05, r^2= 1.2D+01
   Bfn.  Coefficient  Atom+Function         Bfn.  Coefficient  Atom+Function  
  ----- ------------  ---------------      ----- ------------  ---------------
    51     19.241581   2 C  s               235    -19.236563   6 C  s         
   302    -10.915441   8 H  s               348     10.917003  10 H  s         
    97     10.000533   3 C  s               189    -10.002066   5 C  s         
   279     -8.924282   7 H  s               371      8.919754  11 H  s         
    12     -7.401541   1 C  px              150     -6.445983   4 C  px        
 
 Vector   75  Occ=0.000000D+00  E= 3.482512D-01
              MO Center=  2.9D-02, -4.6D-01,  1.2D-05, r^2= 1.3D+01
   Bfn.  Coefficient  Atom+Function         Bfn.  Coefficient  Atom+Function  
  ----- ------------  ---------------      ----- ------------  ---------------
    51      8.842206   2 C  s               235     -8.847258   6 C  s         
   302     -4.939268   8 H  s               348      4.941038  10 H  s         
    97      4.467783   3 C  s               189     -4.469615   5 C  s         
   279     -3.961488   7 H  s               371      3.958756  11 H  s         
   155      3.637238   4 C  pz               17     -3.477273   1 C  pz        
 
 Vector   76  Occ=0.000000D+00  E= 3.527413D-01
              MO Center=  3.3D-02, -5.3D-01,  6.6D-05, r^2= 1.4D+01
   Bfn.  Coefficient  Atom+Function         Bfn.  Coefficient  Atom+Function  
  ----- ------------  ---------------      ----- ------------  ---------------
    17      6.391584   1 C  pz               63     -5.860247   2 C  pz        
   247     -5.860299   6 C  pz              109      5.126751   3 C  pz        
   201      5.126770   5 C  pz              155     -4.853813   4 C  pz        
   335      3.962617   9 H  pz               14      3.794020   1 C  pz        
   167      3.079594   4 C  d -1             60     -2.683674   2 C  pz        
 
 Vector   77  Occ=0.000000D+00  E= 3.546328D-01
              MO Center= -2.0D-02,  3.2D-01, -8.7D-05, r^2= 1.5D+01
   Bfn.  Coefficient  Atom+Function         Bfn.  Coefficient  Atom+Function  
  ----- ------------  ---------------      ----- ------------  ---------------
     5     31.364270   1 C  s               143     15.881091   4 C  s         
    51    -15.740742   2 C  s               235    -15.738343   6 C  s         
   151    -11.077424   4 C  py              196     -7.599212   5 C  px        
    50      7.385125   2 C  s               234      7.385020   6 C  s         
    13      7.275356   1 C  py              104      7.158335   3 C  px        
 
 Vector   78  Occ=0.000000D+00  E= 3.599094D-01
              MO Center= -4.7D-02,  7.5D-01,  7.7D-06, r^2= 1.3D+01
   Bfn.  Coefficient  Atom+Function         Bfn.  Coefficient  Atom+Function  
  ----- ------------  ---------------      ----- ------------  ---------------
   289      3.405642   7 H  pz              381     -3.405735  11 H  pz        
    60      3.157485   2 C  pz              244     -3.157513   6 C  pz        
    77     -3.083185   2 C  d  1            121     -3.087604   3 C  d -1      
   259      3.024903   6 C  d -1            213      2.786317   5 C  d -1      
   312     -2.762709   8 H  pz              358      2.762597  10 H  pz        
 
 Vector   79  Occ=0.000000D+00  E= 3.685625D-01
              MO Center=  3.6D-02, -5.7D-01, -3.2D-06, r^2= 1.3D+01
   Bfn.  Coefficient  Atom+Function         Bfn.  Coefficient  Atom+Function  
  ----- ------------  ---------------      ----- ------------  ---------------
    96     10.734897   3 C  s               188     10.733768   5 C  s         
   104     -8.499134   3 C  px              196      8.489253   5 C  px        
   142     -7.529021   4 C  s                 5      7.229913   1 C  s         
   212      5.395177   5 C  d -2            258      5.318492   6 C  d -2      
   120     -5.224412   3 C  d -2            242     -5.087696   6 C  px        
 
 Vector   80  Occ=0.000000D+00  E= 3.720906D-01
              MO Center=  2.0D-02, -3.1D-01,  3.3D-07, r^2= 1.3D+01
   Bfn.  Coefficient  Atom+Function         Bfn.  Coefficient  Atom+Function  
  ----- ------------  ---------------      ----- ------------  ---------------
    97      9.839750   3 C  s               189     -9.838565   5 C  s         
    50      9.029421   2 C  s               234     -9.028958   6 C  s         
   279     -5.477756   7 H  s               371      5.480160  11 H  s         
   357      5.246756  10 H  py              311     -5.125712   8 H  py        
   212     -4.884046   5 C  d -2             51     -4.817919   2 C  s         
 
 Vector   81  Occ=0.000000D+00  E= 3.819100D-01
              MO Center=  3.6D-02, -5.7D-01, -8.0D-06, r^2= 1.6D+01
   Bfn.  Coefficient  Atom+Function         Bfn.  Coefficient  Atom+Function  
  ----- ------------  ---------------      ----- ------------  ---------------
   166      9.080942   4 C  d -2            333      7.117625   9 H  px        
   150     -6.664360   4 C  px              216     -6.557369   5 C  d  2      
   124      6.101965   3 C  d  2            279      5.866893   7 H  s         
   371     -5.867144  11 H  s               310      5.086543   8 H  px        
   356      5.023262  10 H  px               96     -4.808233   3 C  s         
 
 Vector   82  Occ=0.000000D+00  E= 3.932579D-01
              MO Center= -2.9D-02,  4.6D-01,  1.8D-07, r^2= 1.5D+01
   Bfn.  Coefficient  Atom+Function         Bfn.  Coefficient  Atom+Function  
  ----- ------------  ---------------      ----- ------------  ---------------
    12     12.156197   1 C  px               51    -11.015200   2 C  s         
   235     11.017297   6 C  s                78     -9.071404   2 C  d  2      
   262      8.742799   6 C  d  2             15     -6.811638   1 C  px        
   216      6.653819   5 C  d  2            124     -5.814379   3 C  d  2      
   153     -5.842620   4 C  px              379     -5.806958  11 H  px        
 
 Vector   83  Occ=0.000000D+00  E= 3.960419D-01
              MO Center= -5.2D-02,  8.3D-01, -2.9D-05, r^2= 1.2D+01
   Bfn.  Coefficient  Atom+Function         Bfn.  Coefficient  Atom+Function  
  ----- ------------  ---------------      ----- ------------  ---------------
   152     -7.514027   4 C  pz              106      7.319372   3 C  pz        
   198      7.319531   5 C  pz               60     -6.465623   2 C  pz        
   244     -6.465693   6 C  pz              167     -6.318610   4 C  d -1      
   215      5.105822   5 C  d  1            123     -4.700521   3 C  d  1      
    14      4.563161   1 C  pz              259      4.017482   6 C  d -1      
 
 Vector   84  Occ=0.000000D+00  E= 4.017337D-01
              MO Center= -3.3D-02,  5.2D-01,  4.7D-05, r^2= 1.5D+01
   Bfn.  Coefficient  Atom+Function         Bfn.  Coefficient  Atom+Function  
  ----- ------------  ---------------      ----- ------------  ---------------
     5     51.752568   1 C  s                51    -19.783718   2 C  s         
   235    -19.780536   6 C  s                97    -17.391852   3 C  s         
   189    -17.389234   5 C  s               143     11.668607   4 C  s         
   142    -10.270893   4 C  s                 4     -9.673418   1 C  s         
    50     -7.940441   2 C  s               234     -7.941179   6 C  s         
 
 Vector   85  Occ=0.000000D+00  E= 4.053101D-01
              MO Center= -5.4D-03,  8.6D-02, -9.0D-06, r^2= 1.3D+01
   Bfn.  Coefficient  Atom+Function         Bfn.  Coefficient  Atom+Function  
  ----- ------------  ---------------      ----- ------------  ---------------
[...]
     Occ.   15 beta  a   ---  Virt.   21 beta  a    0.10240 X
     Occ.   19 beta  a   ---  Virt.   24 beta  a    0.22086 X
     Occ.   20 beta  a   ---  Virt.   22 beta  a   -0.14458 X
  ----------------------------------------------------------------------------
  Root  27         a              0.251973614 a.u.                6.8566 eV 
  <S2> =   1.6619
  ----------------------------------------------------------------------------
     Transition Moments    X  0.00366   Y  0.00021   Z -0.24502
     Transition Moments   XX -0.00046  XY  0.00333  XZ  0.01064
     Transition Moments   YY  0.00039  YZ -0.16698  ZZ -0.00000
     Dipole Oscillator Strength                    0.0100870843
     Electric Quadrupole                           0.0000000024
     Magnetic Dipole                               0.0000000311
     Total Oscillator Strength                     0.0100871178
 
     Occ.   19 alpha a   ---  Virt.   26 alpha a   -0.98230 X
     Occ.   19 alpha a   ---  Virt.   35 alpha a    0.07115 X
     Occ.   19 alpha a   ---  Virt.   36 alpha a    0.07362 X
     Occ.   20 alpha a   ---  Virt.   25 alpha a   -0.11469 X
     Occ.   20 beta  a   ---  Virt.   26 beta  a   -0.05037 X
  ----------------------------------------------------------------------------
  Root  28         a              0.252621350 a.u.                6.8742 eV 
  <S2> =   1.8894
  ----------------------------------------------------------------------------
     Transition Moments    X  0.00001   Y -0.00005   Z  0.00006
     Transition Moments   XX -0.00047  XY -0.00019  XZ  0.39293
     Transition Moments   YY  0.00250  YZ  0.02479  ZZ -0.00034
     Dipole Oscillator Strength                    0.0000000011
     Electric Quadrupole                           0.0000000133
     Magnetic Dipole                               0.0000000096
     Total Oscillator Strength                     0.0000000240
 
     Occ.   19 alpha a   ---  Virt.   25 alpha a   -0.24742 X
     Occ.   20 alpha a   ---  Virt.   26 alpha a   -0.96036 X
     Occ.   20 alpha a   ---  Virt.   35 alpha a    0.06154 X
     Occ.   20 alpha a   ---  Virt.   36 alpha a    0.06547 X
     Occ.   19 beta  a   ---  Virt.   26 beta  a    0.06484 X
  ----------------------------------------------------------------------------
  Root  29         a              0.253987541 a.u.                6.9114 eV 
  <S2> =   1.6185
  ----------------------------------------------------------------------------
     Transition Moments    X -0.00000   Y  0.00013   Z  0.00000
     Transition Moments   XX  0.00085  XY -0.00015  XZ  0.49369
     Transition Moments   YY  0.00318  YZ  0.03112  ZZ -0.00042
     Dipole Oscillator Strength                    0.0000000027
     Electric Quadrupole                           0.0000000214
     Magnetic Dipole                               0.0000000109
     Total Oscillator Strength                     0.0000000350
 
     Occ.   20 alpha a   ---  Virt.   26 alpha a   -0.06942 X
     Occ.   19 beta  a   ---  Virt.   26 beta  a   -0.98516 X
     Occ.   19 beta  a   ---  Virt.   35 beta  a    0.05784 X
     Occ.   19 beta  a   ---  Virt.   36 beta  a    0.07401 X
     Occ.   20 beta  a   ---  Virt.   25 beta  a   -0.09686 X
  ----------------------------------------------------------------------------
  Root  30         a              0.254755631 a.u.                6.9323 eV 
  <S2> =   0.7707
  ----------------------------------------------------------------------------
     Transition Moments    X  1.50330   Y  0.09503   Z -0.00126
     Transition Moments   XX  0.02427  XY -0.18975  XZ -0.00005
     Transition Moments   YY -0.02353  YZ  0.00078  ZZ  0.00006
     Dipole Oscillator Strength                    0.3853489881
     Electric Quadrupole                           0.0000000032
     Magnetic Dipole                               0.0000000195
     Total Oscillator Strength                     0.3853490108
 
     Occ.   19 alpha a   ---  Virt.   22 alpha a    0.38009 X
     Occ.   19 alpha a   ---  Virt.   22 alpha a   -0.05311 Y
     Occ.   20 alpha a   ---  Virt.   23 alpha a   -0.42684 X
     Occ.   20 alpha a   ---  Virt.   23 alpha a    0.05109 Y
     Occ.   20 alpha a   ---  Virt.   29 alpha a    0.14083 X
     Occ.   21 alpha a   ---  Virt.   25 alpha a   -0.07641 X
     Occ.   21 alpha a   ---  Virt.   27 alpha a    0.38956 X
     Occ.   13 beta  a   ---  Virt.   21 beta  a   -0.12800 X
     Occ.   15 beta  a   ---  Virt.   21 beta  a   -0.27045 X
     Occ.   19 beta  a   ---  Virt.   24 beta  a   -0.49862 X
     Occ.   19 beta  a   ---  Virt.   29 beta  a    0.13914 X
     Occ.   20 beta  a   ---  Virt.   22 beta  a    0.34838 X
     Occ.   20 beta  a   ---  Virt.   22 beta  a   -0.05611 Y
  ----------------------------------------------------------------------------
  Root  31         a              0.255406239 a.u.                6.9500 eV 
  <S2> =   0.8012
  ----------------------------------------------------------------------------
     Transition Moments    X  0.04058   Y -0.63636   Z  0.00001
     Transition Moments   XX -0.65026  XY  0.07812  XZ -0.00264
     Transition Moments   YY -1.88572  YZ -0.00016  ZZ -0.14658
     Dipole Oscillator Strength                    0.0692329707
     Electric Quadrupole                           0.0000000716
     Magnetic Dipole                               0.0000000000
     Total Oscillator Strength                     0.0692330423
 
     Occ.   19 alpha a   ---  Virt.   23 alpha a    0.10550 X
     Occ.   20 alpha a   ---  Virt.   22 alpha a    0.11463 X
     Occ.   21 alpha a   ---  Virt.   26 alpha a    0.18451 X
     Occ.   21 alpha a   ---  Virt.   28 alpha a   -0.90984 X
     Occ.   21 alpha a   ---  Virt.   30 alpha a   -0.12847 X
     Occ.   21 alpha a   ---  Virt.   31 alpha a   -0.16270 X
     Occ.   21 alpha a   ---  Virt.   48 alpha a    0.05657 X
     Occ.   16 beta  a   ---  Virt.   21 beta  a    0.18861 X
     Occ.   19 beta  a   ---  Virt.   22 beta  a    0.10933 X
     Occ.   20 beta  a   ---  Virt.   24 beta  a    0.09639 X
  ----------------------------------------------------------------------------
  Root  32         a              0.260753301 a.u.                7.0955 eV 
  <S2> =   0.8001
  ----------------------------------------------------------------------------
     Transition Moments    X  0.00855   Y  0.00054   Z  0.09558
     Transition Moments   XX  0.00097  XY -0.00763  XZ -0.04441
     Transition Moments   YY -0.00096  YZ  0.70492  ZZ  0.00000
     Dipole Oscillator Strength                    0.0016009792
     Electric Quadrupole                           0.0000000471
     Magnetic Dipole                               0.0000000332
     Total Oscillator Strength                     0.0016010595
 
     Occ.   21 alpha a   ---  Virt.   29 alpha a   -0.97945 X
     Occ.   21 alpha a   ---  Virt.   33 alpha a   -0.17995 X
  ----------------------------------------------------------------------------
  Root  33         a              0.265399054 a.u.                7.2219 eV 
  <S2> =   1.7805
  ----------------------------------------------------------------------------
     Transition Moments    X -0.00130   Y  0.02065   Z -0.00000
     Transition Moments   XX -0.00169  XY  0.00057  XZ -0.54556
     Transition Moments   YY -0.01061  YZ -0.03437  ZZ -0.00262
     Dipole Oscillator Strength                    0.0000757760
     Electric Quadrupole                           0.0000000297
     Magnetic Dipole                               0.0000000006
     Total Oscillator Strength                     0.0000758063
 
     Occ.   20 beta  a   ---  Virt.   27 beta  a   -0.99090 X
     Occ.   20 beta  a   ---  Virt.   38 beta  a    0.09649 X
  ----------------------------------------------------------------------------
  Root  34         a              0.267189947 a.u.                7.2706 eV 
  <S2> =   0.8219
  ----------------------------------------------------------------------------
     Transition Moments    X  0.07576   Y -1.20062   Z  0.00000
     Transition Moments   XX  0.01905  XY -0.04277  XZ -0.01371
     Transition Moments   YY  0.69485  YZ -0.00087  ZZ  0.04599
     Dipole Oscillator Strength                    0.2577916209
     Electric Quadrupole                           0.0000000151
     Magnetic Dipole                               0.0000000000
     Total Oscillator Strength                     0.2577916360
 
     Occ.   17 alpha a   ---  Virt.   23 alpha a   -0.08606 X
     Occ.   19 alpha a   ---  Virt.   23 alpha a    0.30513 X
     Occ.   19 alpha a   ---  Virt.   29 alpha a    0.16162 X
     Occ.   20 alpha a   ---  Virt.   22 alpha a    0.22283 X
     Occ.   21 alpha a   ---  Virt.   28 alpha a    0.30119 X
     Occ.   21 alpha a   ---  Virt.   30 alpha a   -0.42760 X
     Occ.   21 alpha a   ---  Virt.   31 alpha a    0.08023 X
     Occ.   14 beta  a   ---  Virt.   21 beta  a   -0.08798 X
     Occ.   16 beta  a   ---  Virt.   21 beta  a    0.50152 X
     Occ.   19 beta  a   ---  Virt.   22 beta  a    0.22348 X
     Occ.   20 beta  a   ---  Virt.   24 beta  a    0.30739 X
     Occ.   20 beta  a   ---  Virt.   29 beta  a    0.34406 X
  ----------------------------------------------------------------------------
  Root  35         a              0.270805488 a.u.                7.3690 eV 
  <S2> =   2.7049
  ----------------------------------------------------------------------------
     Transition Moments    X -0.00348   Y -0.00023   Z  0.00959
     Transition Moments   XX -0.00030  XY  0.00243  XZ -0.00957
     Transition Moments   YY  0.00030  YZ  0.15125  ZZ  0.00000
     Dipole Oscillator Strength                    0.0000187913
     Electric Quadrupole                           0.0000000024
     Magnetic Dipole                               0.0000000000
     Total Oscillator Strength                     0.0000187938
 
     Occ.   20 alpha a   ---  Virt.   27 alpha a   -0.79503 X
     Occ.   20 alpha a   ---  Virt.   38 alpha a    0.08774 X
     Occ.   19 beta  a   ---  Virt.   27 beta  a    0.57563 X
     Occ.   19 beta  a   ---  Virt.   38 beta  a   -0.06807 X
     Occ.   20 beta  a   ---  Virt.   28 beta  a    0.05384 X
     Occ.   20 beta  a   ---  Virt.   30 beta  a    0.06099 X
  ----------------------------------------------------------------------------
  Root  36         a              0.271240138 a.u.                7.3808 eV 
  <S2> =   2.7404
  ----------------------------------------------------------------------------
     Transition Moments    X -0.04850   Y -0.00302   Z  0.00057
     Transition Moments   XX -0.00376  XY  0.02854  XZ  0.00073
     Transition Moments   YY  0.00373  YZ -0.01150  ZZ -0.00004
     Dipole Oscillator Strength                    0.0004270872
     Electric Quadrupole                           0.0000000001
     Magnetic Dipole                               0.0000000018
     Total Oscillator Strength                     0.0004270891
 
     Occ.   17 alpha a   ---  Virt.   22 alpha a   -0.59502 X
     Occ.   17 alpha a   ---  Virt.   41 alpha a    0.05217 X
     Occ.   19 alpha a   ---  Virt.   32 alpha a    0.08346 X
     Occ.   20 alpha a   ---  Virt.   27 alpha a    0.05642 X
     Occ.   20 alpha a   ---  Virt.   29 alpha a   -0.16300 X
     Occ.   20 alpha a   ---  Virt.   44 alpha a    0.22640 X
     Occ.   20 alpha a   ---  Virt.   47 alpha a   -0.17339 X
     Occ.   17 beta  a   ---  Virt.   22 beta  a    0.64148 X
     Occ.   17 beta  a   ---  Virt.   41 beta  a   -0.05407 X
     Occ.   18 beta  a   ---  Virt.   22 beta  a    0.05379 X
     Occ.   19 beta  a   ---  Virt.   29 beta  a    0.10116 X
     Occ.   19 beta  a   ---  Virt.   44 beta  a   -0.19984 X
     Occ.   19 beta  a   ---  Virt.   47 beta  a    0.16596 X
     Occ.   20 beta  a   ---  Virt.   31 beta  a   -0.10081 X
  ----------------------------------------------------------------------------
  Root  37         a              0.271756371 a.u.                7.3949 eV 
  <S2> =   1.0519
  ----------------------------------------------------------------------------
     Transition Moments    X -0.03230   Y  0.51227   Z -0.00002
     Transition Moments   XX -1.05208  XY -0.11435  XZ  0.01190
     Transition Moments   YY  0.75538  YZ -0.00003  ZZ -0.23970
     Dipole Oscillator Strength                    0.0477324697
     Electric Quadrupole                           0.0000000890
     Magnetic Dipole                               0.0000000000
     Total Oscillator Strength                     0.0477325587
 
     Occ.   17 alpha a   ---  Virt.   23 alpha a    0.06250 X
     Occ.   19 alpha a   ---  Virt.   23 alpha a   -0.09112 X
     Occ.   21 alpha a   ---  Virt.   30 alpha a   -0.79731 X
     Occ.   21 alpha a   ---  Virt.   31 alpha a    0.20548 X
     Occ.   21 alpha a   ---  Virt.   35 alpha a   -0.07436 X
     Occ.   21 alpha a   ---  Virt.   40 alpha a    0.05669 X
     Occ.   14 beta  a   ---  Virt.   21 beta  a    0.06322 X
     Occ.   16 beta  a   ---  Virt.   21 beta  a   -0.18853 X
     Occ.   19 beta  a   ---  Virt.   22 beta  a   -0.05847 X
     Occ.   20 beta  a   ---  Virt.   24 beta  a   -0.09589 X
     Occ.   20 beta  a   ---  Virt.   29 beta  a   -0.48477 X
  ----------------------------------------------------------------------------
  Root  38         a              0.271806550 a.u.                7.3962 eV 
  <S2> =   0.8293
  ----------------------------------------------------------------------------
     Transition Moments    X  0.00061   Y -0.00038   Z -0.02486
     Transition Moments   XX  0.00069  XY  0.00145  XZ  0.05506
     Transition Moments   YY -0.00044  YZ -0.87233  ZZ  0.00020
     Dipole Oscillator Strength                    0.0001120929
     Electric Quadrupole                           0.0000000817
     Magnetic Dipole                               0.0000000038
     Total Oscillator Strength                     0.0001121784
 
     Occ.   20 alpha a   ---  Virt.   27 alpha a    0.57375 X
     Occ.   19 beta  a   ---  Virt.   27 beta  a    0.80059 X
     Occ.   19 beta  a   ---  Virt.   38 beta  a   -0.07511 X
     Occ.   20 beta  a   ---  Virt.   28 beta  a   -0.12781 X
  ----------------------------------------------------------------------------
  Root  39         a              0.272283565 a.u.                7.4092 eV 
  <S2> =   1.7260
  ----------------------------------------------------------------------------
     Transition Moments    X  0.00058   Y -0.00912   Z  0.00002
     Transition Moments   XX  0.01826  XY  0.00200  XZ  0.54887
     Transition Moments   YY -0.01345  YZ  0.03487  ZZ  0.00631
     Dipole Oscillator Strength                    0.0000151497
     Electric Quadrupole                           0.0000000325
     Magnetic Dipole                               0.0000000013
     Total Oscillator Strength                     0.0000151836
 
     Occ.   19 alpha a   ---  Virt.   27 alpha a    0.99011 X
     Occ.   19 alpha a   ---  Virt.   38 alpha a   -0.09592 X
  ----------------------------------------------------------------------------
  Root  40         a              0.272510278 a.u.                7.4154 eV 
  <S2> =   1.9621
  ----------------------------------------------------------------------------
     Transition Moments    X -0.00002   Y -0.00005   Z -0.04148
     Transition Moments   XX  0.00005  XY  0.00050  XZ  0.02788
     Transition Moments   YY -0.00004  YZ -0.44058  ZZ  0.00002
     Dipole Oscillator Strength                    0.0003125637
     Electric Quadrupole                           0.0000000210
     Magnetic Dipole                               0.0000000053
     Total Oscillator Strength                     0.0003125900
 
     Occ.   19 alpha a   ---  Virt.   28 alpha a    0.11712 X
     Occ.   20 alpha a   ---  Virt.   27 alpha a   -0.12614 X
     Occ.   17 beta  a   ---  Virt.   21 beta  a    0.05507 X
     Occ.   19 beta  a   ---  Virt.   27 beta  a   -0.06736 X
     Occ.   20 beta  a   ---  Virt.   28 beta  a   -0.96958 X
     Occ.   20 beta  a   ---  Virt.   30 beta  a   -0.05586 X
     Occ.   20 beta  a   ---  Virt.   32 beta  a   -0.07419 X
     Occ.   20 beta  a   ---  Virt.   43 beta  a   -0.08101 X
 
              Target root =      1
          Target symmetry = none
      Ground state energy =   -231.646324886759
        Excitation energy =      0.106293764442
     Excited state energy =   -231.540031122317
 
  stored tddft:energy   -231.540031122317     

 Task  times  cpu:     3603.9s     wall:     3720.0s
 
 
                                NWChem Input Module
                                -------------------
 
 
 Summary of allocated global arrays
-----------------------------------
  No active global arrays



                         GA Statistics for process    0
                         ------------------------------

       create   destroy   get      put      acc     scatter   gather  read&inc
calls: 9555     9555     9.41e+06 4.05e+06 1.97e+06 5660        0      292     
number of processes/call 1.34e+00 1.75e+00 1.92e+00 0.00e+00 0.00e+00
bytes total:             8.49e+10 1.09e+10 9.23e+10 6.26e+04 0.00e+00 2.34e+03
bytes remote:            6.26e+10 1.10e+09 8.81e+10 0.00e+00 0.00e+00 0.00e+00
Max memory consumed for GA by this process: 205086464 bytes
 
MA_summarize_allocated_blocks: starting scan ...
MA_summarize_allocated_blocks: scan completed: 0 heap blocks, 0 stack blocks
MA usage statistics:

	allocation statistics:
					      heap	     stack
					      ----	     -----
	current number of blocks	         0	         0
	maximum number of blocks	        20	        52
	current total bytes		         0	         0
	maximum total bytes		   1166000	  68276408
	maximum total K-bytes		      1166	     68277
	maximum total M-bytes		         2	        69
 
 
                                     CITATION
                                     --------
                Please cite the following reference when publishing
                           results obtained with NWChem:
 
                 M. Valiev, E.J. Bylaska, N. Govind, K. Kowalski,
              T.P. Straatsma, H.J.J. van Dam, D. Wang, J. Nieplocha,
                        E. Apra, T.L. Windus, W.A. de Jong
                 "NWChem: a comprehensive and scalable open-source
                  solution for large scale molecular simulations"
                      Comput. Phys. Commun. 181, 1477 (2010)
                           doi:10.1016/j.cpc.2010.04.018
 
                                      AUTHORS
                                      -------
          E. Apra, E. J. Bylaska, W. A. de Jong, N. Govind, K. Kowalski,
       T. P. Straatsma, M. Valiev, H. J. J. van Dam, D. Wang, T. L. Windus,
        J. Hammond, J. Autschbach, K. Bhaskaran-Nair, J. Brabec, K. Lopata,
    S. A. Fischer, S. Krishnamoorthy, M. Jacquelin, W. Ma, M. Klemm, O. Villa,
      Y. Chen, V. Anisimov, F. Aquino, S. Hirata, M. T. Hackler, V. Konjkov,
            D. Mejia-Rodriguez, T. Risthaus, M. Malagoli, A. Marenich,
   A. Otero-de-la-Roza, J. Mullin, P. Nichols, R. Peverati, J. Pittner, Y. Zhao,
        P.-D. Fan, A. Fonari, M. J. Williamson, R. J. Harrison, J. R. Rehr,
      M. Dupuis, D. Silverstein, D. M. A. Smith, J. Nieplocha, V. Tipparaju,
    M. Krishnan, B. E. Van Kuiken, A. Vazquez-Mayagoitia, L. Jensen, M. Swart,
      Q. Wu, T. Van Voorhis, A. A. Auer, M. Nooijen, L. D. Crosby, E. Brown,
      G. Cisneros, G. I. Fann, H. Fruchtl, J. Garza, K. Hirao, R. A. Kendall,
      J. A. Nichols, K. Tsemekhman, K. Wolinski, J. Anchell, D. E. Bernholdt,
      P. Borowski, T. Clark, D. Clerc, H. Dachsel, M. J. O. Deegan, K. Dyall,
    D. Elwood, E. Glendening, M. Gutowski, A. C. Hess, J. Jaffe, B. G. Johnson,
     J. Ju, R. Kobayashi, R. Kutteh, Z. Lin, R. Littlefield, X. Long, B. Meng,
      T. Nakajima, S. Niu, L. Pollack, M. Rosing, K. Glaesemann, G. Sandrone,
      M. Stave, H. Taylor, G. Thomas, J. H. van Lenthe, A. T. Wong, Z. Zhang.

 Total times  cpu:     3603.9s     wall:     3721.5s
